
     Program PWSCF v.6.1 (svn rev. 13369) starts on  6Nov2017 at 13:46:56 

     This program is part of the open-source Quantum ESPRESSO suite
     for quantum simulation of materials; please cite
         "P. Giannozzi et al., J. Phys.:Condens. Matter 21 395502 (2009);
          URL http://www.quantum-espresso.org", 
     in publications or presentations arising from this work. More details at
     http://www.quantum-espresso.org/quote

     Parallel version (MPI & OpenMP), running on     160 processor cores
     Number of MPI processes:               160
     Threads/MPI process:                     1
     R & G space division:  proc/nbgrp/npool/nimage =     160
     Waiting for input...
     Reading input from standard input

     Current dimensions of program PWSCF are:
     Max number of different atomic species (ntypx) = 10
     Max number of k-points (npk) =  40000
     Max angular momentum in pseudopotentials (lmaxx) =  3

     IMPORTANT: XC functional enforced from input :
     Exchange-correlation      = PBE0 ( 6  4  8  4 0 0)
     EXX-fraction              =        0.25
     Any further DFT definition will be discarded
     Please, verify this is what you really want

     EXX fraction changed:   0.99

     gamma-point specific algorithms are used

     Subspace diagonalization in iterative solution of the eigenvalue problem:
     one sub-group per band group will be used
     scalapack distributed-memory algorithm (size of sub-group:  8*  8 procs)

     Found symmetry operation: I + (  0.2500  0.2500  0.0000)
     This is a supercell, fractional translations are disabled
EXX: grid of k+q points same as grid of k-points
 
     Parallelization info
     --------------------
     sticks:   dense  smooth     PW     G-vecs:    dense   smooth      PW
     Min          32      32      7                 1832     1832     228
     Max          34      34     10                 1866     1866     242
     Sum        5377    5377   1353               295907   295907   37073
 


     bravais-lattice index     =            1
     lattice parameter (alat)  =      20.5280  a.u.
     unit-cell volume          =    8650.4742 (a.u.)^3
     number of atoms/cell      =           64
     number of atomic types    =            1
     number of electrons       =       256.00
     number of Kohn-Sham states=          250
     kinetic-energy cutoff     =      40.0000  Ry
     charge density cutoff     =     160.0000  Ry
     cutoff for Fock operator  =     160.0000  Ry
     convergence threshold     =      1.0E-06
     mixing beta               =       0.7000
     number of iterations used =            8  plain     mixing
     Exchange-correlation      = PBE0 ( 6  4  8  4 0 0)
     EXX-fraction              =        0.99

     celldm(1)=  20.528000  celldm(2)=   0.000000  celldm(3)=   0.000000
     celldm(4)=   0.000000  celldm(5)=   0.000000  celldm(6)=   0.000000

     crystal axes: (cart. coord. in units of alat)
               a(1) = (   1.000000   0.000000   0.000000 )  
               a(2) = (   0.000000   1.000000   0.000000 )  
               a(3) = (   0.000000   0.000000   1.000000 )  

     reciprocal axes: (cart. coord. in units 2 pi/alat)
               b(1) = (  1.000000  0.000000  0.000000 )  
               b(2) = (  0.000000  1.000000  0.000000 )  
               b(3) = (  0.000000  0.000000  1.000000 )  


     PseudoPot. # 1 for Si read from file:
     ./Si_ONCV_PBE-1.1.upf
     MD5 check sum: 893f9c914d8b8e384479fa6fd8b59ac5
     Pseudo is Norm-conserving, Zval =  4.0
     Generated using ONCVPSP code by D. R. Hamann
     Using radial grid of  602 points,  4 beta functions with: 
                l(1) =   0
                l(2) =   0
                l(3) =   1
                l(4) =   1

     atomic species   valence    mass     pseudopotential
        Si             4.00    28.08600     Si( 1.00)

     No symmetry found



   Cartesian axes

     site n.     atom                  positions (alat units)
         1           Si  tau(   1) = (   0.0625000   0.0625000   0.0625000  )
         2           Si  tau(   2) = (   0.3124999   0.3124999   0.0625000  )
         3           Si  tau(   3) = (   0.3124999   0.0625000   0.3124999  )
         4           Si  tau(   4) = (   0.0625000   0.3124999   0.3124999  )
         5           Si  tau(   5) = (   0.1874999   0.1874999   0.4374998  )
         6           Si  tau(   6) = (   0.0625000   0.0625000   0.5624998  )
         7           Si  tau(   7) = (   0.3124999   0.3124999   0.5624998  )
         8           Si  tau(   8) = (   0.3124999   0.0625000   0.8124997  )
         9           Si  tau(   9) = (   0.0625000   0.3124999   0.8124997  )
        10           Si  tau(  10) = (   0.1874999   0.1874999   0.9374996  )
        11           Si  tau(  11) = (   0.1874999   0.4374998   0.1874999  )
        12           Si  tau(  12) = (   0.0625000   0.5624998   0.0625000  )
        13           Si  tau(  13) = (   0.3124999   0.8124997   0.0625000  )
        14           Si  tau(  14) = (   0.3124999   0.5624998   0.3124999  )
        15           Si  tau(  15) = (   0.0625000   0.8124997   0.3124999  )
        16           Si  tau(  16) = (   0.1874999   0.6874997   0.4374998  )
        17           Si  tau(  17) = (   0.1874999   0.4374998   0.6874997  )
        18           Si  tau(  18) = (   0.0625000   0.5624998   0.5624998  )
        19           Si  tau(  19) = (   0.3124999   0.8124997   0.5624998  )
        20           Si  tau(  20) = (   0.3124999   0.5624998   0.8124997  )
        21           Si  tau(  21) = (   0.0625000   0.8124997   0.8124997  )
        22           Si  tau(  22) = (   0.1874999   0.6874997   0.9374996  )
        23           Si  tau(  23) = (   0.1874999   0.9374996   0.1874999  )
        24           Si  tau(  24) = (   0.1874999   0.9374996   0.6874997  )
        25           Si  tau(  25) = (   0.4374998   0.1874999   0.1874999  )
        26           Si  tau(  26) = (   0.5624998   0.0625000   0.0625000  )
        27           Si  tau(  27) = (   0.8124997   0.3124999   0.0625000  )
        28           Si  tau(  28) = (   0.8124997   0.0625000   0.3124999  )
        29           Si  tau(  29) = (   0.5624998   0.3124999   0.3124999  )
        30           Si  tau(  30) = (   0.6874997   0.1874999   0.4374998  )
        31           Si  tau(  31) = (   0.4374998   0.1874999   0.6874997  )
        32           Si  tau(  32) = (   0.5624998   0.0625000   0.5624998  )
        33           Si  tau(  33) = (   0.8124997   0.3124999   0.5624998  )
        34           Si  tau(  34) = (   0.8124997   0.0625000   0.8124997  )
        35           Si  tau(  35) = (   0.5624998   0.3124999   0.8124997  )
        36           Si  tau(  36) = (   0.6874997   0.1874999   0.9374996  )
        37           Si  tau(  37) = (   0.6874997   0.4374998   0.1874999  )
        38           Si  tau(  38) = (   0.4374998   0.6874997   0.1874999  )
        39           Si  tau(  39) = (   0.5624998   0.5624998   0.0625000  )
        40           Si  tau(  40) = (   0.8124997   0.8124997   0.0625000  )
        41           Si  tau(  41) = (   0.8124997   0.5624998   0.3124999  )
        42           Si  tau(  42) = (   0.5624998   0.8124997   0.3124999  )
        43           Si  tau(  43) = (   0.4374998   0.4374998   0.4374998  )
        44           Si  tau(  44) = (   0.6874997   0.6874997   0.4374998  )
        45           Si  tau(  45) = (   0.6874997   0.4374998   0.6874997  )
        46           Si  tau(  46) = (   0.4374998   0.6874997   0.6874997  )
        47           Si  tau(  47) = (   0.5624998   0.5624998   0.5624998  )
        48           Si  tau(  48) = (   0.8124997   0.8124997   0.5624998  )
        49           Si  tau(  49) = (   0.8124997   0.5624998   0.8124997  )
        50           Si  tau(  50) = (   0.5624998   0.8124997   0.8124997  )
        51           Si  tau(  51) = (   0.4374998   0.4374998   0.9374996  )
        52           Si  tau(  52) = (   0.6874997   0.6874997   0.9374996  )
        53           Si  tau(  53) = (   0.6874997   0.9374996   0.1874999  )
        54           Si  tau(  54) = (   0.4374998   0.9374996   0.4374998  )
        55           Si  tau(  55) = (   0.6874997   0.9374996   0.6874997  )
        56           Si  tau(  56) = (   0.4374998   0.9374996   0.9374996  )
        57           Si  tau(  57) = (   0.9374996   0.1874999   0.1874999  )
        58           Si  tau(  58) = (   0.9374996   0.1874999   0.6874997  )
        59           Si  tau(  59) = (   0.9374996   0.6874997   0.1874999  )
        60           Si  tau(  60) = (   0.9374996   0.4374998   0.4374998  )
        61           Si  tau(  61) = (   0.9374996   0.6874997   0.6874997  )
        62           Si  tau(  62) = (   0.9374996   0.4374998   0.9374996  )
        63           Si  tau(  63) = (   0.9374996   0.9374996   0.4374998  )
        64           Si  tau(  64) = (   0.9374996   0.9374996   0.9374996  )

     number of k points=     1
                       cart. coord. in units 2pi/alat
        k(    1) = (   0.0000000   0.0000000   0.0000000), wk =   2.0000000

     Dense  grid:   147954 G-vectors     FFT dimensions: (  90,  90,  90)

     Estimated max dynamical RAM per process >      61.62MB

     Estimated total allocated dynamical RAM >    9859.14MB

     Initial potential from superposition of free atoms

     starting charge  253.04156, renormalised to  256.00000
     Starting wfc are random

     total cpu time spent up to now is        1.8 secs

     per-process dynamical memory:    28.3 Mb

     Self-consistent Calculation

     iteration #  1     ecut=    40.00 Ry     beta=0.70
     Davidson diagonalization with overlap
     ethr =  1.00E-02,  avg # of iterations =  9.0

     Threshold (ethr) on eigenvalues was too large:
     Diagonalizing with lowered threshold

     Davidson diagonalization with overlap
     ethr =  7.50E-04,  avg # of iterations =  5.0

     total cpu time spent up to now is        6.5 secs

     total energy              =    -503.90671380 Ry
     Harris-Foulkes estimate   =    -504.38765653 Ry
     estimated scf accuracy    <       1.92605610 Ry

     iteration #  2     ecut=    40.00 Ry     beta=0.70
     Davidson diagonalization with overlap
     ethr =  7.52E-04,  avg # of iterations =  1.0

     total cpu time spent up to now is        7.3 secs

     total energy              =    -503.99390417 Ry
     Harris-Foulkes estimate   =    -503.99278470 Ry
     estimated scf accuracy    <       0.07598662 Ry

     iteration #  3     ecut=    40.00 Ry     beta=0.70
     Davidson diagonalization with overlap
     ethr =  2.97E-05,  avg # of iterations =  6.0

     total cpu time spent up to now is        9.1 secs

     total energy              =    -503.99511155 Ry
     Harris-Foulkes estimate   =    -503.99963832 Ry
     estimated scf accuracy    <       0.00753342 Ry

     iteration #  4     ecut=    40.00 Ry     beta=0.70
     Davidson diagonalization with overlap
     ethr =  2.94E-06,  avg # of iterations =  4.0

     total cpu time spent up to now is       10.6 secs

     total energy              =    -503.99338430 Ry
     Harris-Foulkes estimate   =    -504.00629181 Ry
     estimated scf accuracy    <       0.04583310 Ry

     iteration #  5     ecut=    40.00 Ry     beta=0.70
     Davidson diagonalization with overlap
     ethr =  2.94E-06,  avg # of iterations =  3.0

     total cpu time spent up to now is       11.9 secs

     total energy              =    -503.99937013 Ry
     Harris-Foulkes estimate   =    -503.99941141 Ry
     estimated scf accuracy    <       0.00009311 Ry

     iteration #  6     ecut=    40.00 Ry     beta=0.70
     Davidson diagonalization with overlap
     ethr =  3.64E-08,  avg # of iterations =  2.0

     total cpu time spent up to now is       12.8 secs

     total energy              =    -503.99940002 Ry
     Harris-Foulkes estimate   =    -503.99940790 Ry
     estimated scf accuracy    <       0.00002445 Ry

     iteration #  7     ecut=    40.00 Ry     beta=0.70
     Davidson diagonalization with overlap
     ethr =  9.55E-09,  avg # of iterations =  2.0

     total cpu time spent up to now is       13.7 secs

     total energy              =    -503.99940560 Ry
     Harris-Foulkes estimate   =    -503.99940735 Ry
     estimated scf accuracy    <       0.00000520 Ry

     iteration #  8     ecut=    40.00 Ry     beta=0.70
     Davidson diagonalization with overlap
     ethr =  2.03E-09,  avg # of iterations =  2.0

     total cpu time spent up to now is       14.6 secs

     End of self-consistent calculation

          k = 0.0000 0.0000 0.0000 ( 18537 PWs)   bands (ev):

    -5.6967  -4.6148  -4.6148  -4.6148  -4.6147  -4.6147  -4.6147  -3.6527
    -3.6527  -3.6526  -3.6526  -3.6526  -3.6526  -3.6526  -3.6526  -3.6526
    -3.6525  -3.6525  -3.6525  -3.3644  -3.3644  -3.3644  -3.3643  -1.5515
    -1.5515  -1.5515  -1.5515  -1.5515  -1.5514  -1.3871  -1.3871  -1.3870
    -1.3870  -1.3870  -1.3870  -1.3870  -1.3870  -1.3870  -1.3870  -1.3869
    -1.3869  -0.7071  -0.7071  -0.7071  -0.7071   0.7852   0.7853   0.7853
     0.7853   0.7853   0.7853   0.7853   0.7853   0.7853   0.7853   0.7853
     0.7853   2.4104   2.4104   2.4104   2.4105   2.4105   2.4105   2.4105
     2.4105   2.4105   2.4105   2.4105   2.4105   2.5102   2.5102   2.5102
     2.5102   2.5102   2.5102   2.5102   2.5102   2.5103   2.5103   2.5103
     2.5103   2.7489   2.7490   2.7490   2.7490   2.7490   2.7490   3.4178
     3.4178   3.4178   3.4179   3.4179   3.4179   4.3789   4.3789   4.3790
     4.3790   4.3790   4.3790   4.3790   4.3790   4.3790   4.3790   4.3791
     4.3791   4.9436   4.9436   4.9436   4.9436   4.9436   4.9436   4.9436
     4.9436   4.9436   4.9437   4.9437   4.9437   5.0740   5.0740   5.0740
     5.0741   5.0741   5.0741   5.0741   5.0741   6.2703   6.2703   6.2704
     6.9437   6.9437   6.9437   6.9438   6.9438   6.9438   7.3714   7.3714
     7.3714   7.3714   7.3714   7.3714   7.7757   7.7758   7.7758   7.7758
     8.6862   8.6862   8.6862   8.6862   8.6862   8.6862   8.6862   8.6862
     8.6862   8.6863   8.6863   8.6863   8.8110   8.8110   8.8110   9.3619
     9.3619   9.3619   9.3620   9.3620   9.3620   9.5746   9.5746   9.5746
     9.5746   9.5746   9.5746   9.5747   9.5747   9.6018  10.5057  10.5057
    10.5057  10.5057  10.5057  10.5057  10.5057  10.5057  10.5058  10.5058
    10.5058  10.5058  11.0324  11.0324  11.0324  11.0324  11.0324  11.0324
    11.0324  11.0324  11.0324  11.0324  11.0324  11.0325  11.2405  11.2405
    11.2405  11.2405  11.2405  11.2405  11.2405  11.2405  11.2405  11.2405
    11.2405  11.2405  11.3723  11.3723  11.3723  11.3723  11.3723  11.3723
    11.3723  11.3723  11.3723  11.3724  11.3724  11.3724  12.0010  12.0010
    12.0010  12.0010  12.0010  12.0010  12.0010  12.0010  12.0011  12.0011
    12.0011  12.0011  12.3868  12.3868  12.3868  12.3869  12.3869  12.3869
    12.3869  12.3869  12.3869  12.3869  12.3869  12.3869  12.6606  12.6606
    12.6607  12.6607

     highest occupied, lowest unoccupied level (ev):     6.2704    6.9437

!    total energy              =    -503.99940659 Ry
     Harris-Foulkes estimate   =    -503.99940672 Ry
     estimated scf accuracy    <       0.00000023 Ry

     convergence has been achieved in   8 iterations

     EXX: now go back to refine exchange calculation

     total cpu time spent up to now is       79.9 secs

     per-process dynamical memory:    56.8 Mb

     Self-consistent Calculation

     iteration #  1     ecut=    40.00 Ry     beta=0.70
     Davidson diagonalization with overlap
     ethr =  2.03E-09,  avg # of iterations =  7.0

     total cpu time spent up to now is      540.0 secs

     total energy              =    -505.86959089 Ry
     Harris-Foulkes estimate   =    -505.89233768 Ry
     estimated scf accuracy    <       0.01619688 Ry

     iteration #  2     ecut=    40.00 Ry     beta=0.70
     Davidson diagonalization with overlap
     ethr =  6.33E-06,  avg # of iterations =  2.0

     total cpu time spent up to now is      726.6 secs

     total energy              =    -505.87105621 Ry
     Harris-Foulkes estimate   =    -505.87180976 Ry
     estimated scf accuracy    <       0.00050323 Ry

     iteration #  3     ecut=    40.00 Ry     beta=0.70
     Davidson diagonalization with overlap
     ethr =  1.97E-07,  avg # of iterations =  2.0

     total cpu time spent up to now is      916.5 secs

     total energy              =    -505.87116619 Ry
     Harris-Foulkes estimate   =    -505.87116771 Ry
     estimated scf accuracy    <       0.00000501 Ry

     iteration #  4     ecut=    40.00 Ry     beta=0.70
     Davidson diagonalization with overlap
     ethr =  1.96E-09,  avg # of iterations =  2.0

     total cpu time spent up to now is     1103.7 secs

     total energy              =    -505.87116741 Ry
     Harris-Foulkes estimate   =    -505.87117006 Ry
     estimated scf accuracy    <       0.00000533 Ry

     iteration #  5     ecut=    40.00 Ry     beta=0.70
     Davidson diagonalization with overlap
     ethr =  1.96E-09,  avg # of iterations =  2.0

     total cpu time spent up to now is     1253.4 secs

     End of self-consistent calculation

          k = 0.0000 0.0000 0.0000 ( 18537 PWs)   bands (ev):

   -14.0577 -12.4868 -12.4868 -12.4868 -12.4868 -12.4868 -12.4868 -11.0871
   -11.0871 -11.0871 -11.0871 -11.0871 -11.0871 -11.0871 -11.0871 -11.0871
   -11.0871 -11.0871 -11.0870 -10.6613 -10.6613 -10.6613 -10.6613  -7.9865
    -7.9865  -7.9865  -7.9865  -7.9865  -7.9865  -7.7456  -7.7456  -7.7456
    -7.7456  -7.7456  -7.7456  -7.7456  -7.7456  -7.7456  -7.7456  -7.7456
    -7.7456  -6.7853  -6.7853  -6.7853  -6.7853  -4.5122  -4.5122  -4.5122
    -4.5122  -4.5122  -4.5122  -4.5122  -4.5122  -4.5122  -4.5122  -4.5122
    -4.5122  -1.9993  -1.9993  -1.9993  -1.9993  -1.9993  -1.9993  -1.9993
    -1.9993  -1.9993  -1.9993  -1.9993  -1.9993  -1.8034  -1.8034  -1.8034
    -1.8034  -1.8034  -1.8034  -1.8034  -1.8034  -1.8034  -1.8034  -1.8034
    -1.8034  -1.5612  -1.5612  -1.5612  -1.5612  -1.5612  -1.5612  -0.7190
    -0.7190  -0.7190  -0.7190  -0.7190  -0.7190   0.8039   0.8039   0.8039
     0.8039   0.8039   0.8040   0.8040   0.8040   0.8040   0.8040   0.8040
     0.8040   1.5343   1.5343   1.5343   1.5343   1.5343   1.5343   1.5343
     1.5343   1.5343   1.5343   1.5344   1.5344   1.6785   1.6785   1.6785
     1.6785   1.6785   1.6785   1.6785   1.6785   3.4237   3.4237   3.4237
     9.0683   9.0684   9.0684   9.0684   9.0684   9.0684   9.6860   9.6860
     9.6860   9.6860   9.6860   9.6860  10.4674  10.4674  10.4674  10.4674
    11.4598  11.4598  11.4598  11.4598  11.4598  11.4598  11.4598  11.4598
    11.4598  11.4598  11.4598  11.4598  11.6873  11.6873  11.6873  12.2125
    12.2125  12.2125  12.2125  12.2125  12.2125  12.6216  12.6216  12.6216
    12.6216  12.6216  12.6216  12.6216  12.6216  13.1414  13.4980  13.4980
    13.4980  13.4980  13.4980  13.4980  13.4980  13.4980  13.4980  13.4980
    13.4980  13.4981  14.6589  14.6589  14.6589  14.6589  14.6589  14.6589
    14.6589  14.6589  14.6589  14.6589  14.6589  14.6589  14.7917  14.7917
    14.7917  14.7917  14.7917  14.7917  14.7917  14.7917  14.7917  14.7917
    14.7917  14.7917  15.0110  15.0110  15.0110  15.0110  15.0110  15.0110
    15.0110  15.0111  15.0111  15.0111  15.0111  15.0111  15.9009  15.9009
    15.9009  15.9010  15.9010  15.9010  15.9010  15.9010  15.9010  15.9010
    15.9010  15.9010  16.2821  16.2821  16.2821  16.2821  16.2821  16.2821
    16.2821  16.2821  16.2821  16.2821  16.2821  16.2821  16.3860  16.3860
    16.3860  16.3860

     highest occupied, lowest unoccupied level (ev):     3.4237    9.0683

!    total energy              =    -505.87116863 Ry
     Harris-Foulkes estimate   =    -505.87116866 Ry
     estimated scf accuracy    <       0.00000005 Ry

     convergence has been achieved in   5 iterations

     total energy              =    -506.03424968 Ry
     Harris-Foulkes estimate   =    -506.03424971 Ry
     est. exchange err (dexx)  =       0.16308105 Ry
     - averaged Fock potential =     271.15437922 Ry
     + Fock energy             =    -136.12543866 Ry

     EXX: now go back to refine exchange calculation

     total cpu time spent up to now is     1380.9 secs

     per-process dynamical memory:    85.5 Mb

     Self-consistent Calculation

     iteration #  1     ecut=    40.00 Ry     beta=0.70
     Davidson diagonalization with overlap
     ethr =  1.96E-09,  avg # of iterations =  6.0

     total cpu time spent up to now is     1753.8 secs

     total energy              =    -506.08931013 Ry
     Harris-Foulkes estimate   =    -506.09427689 Ry
     estimated scf accuracy    <       0.00402275 Ry

     iteration #  2     ecut=    40.00 Ry     beta=0.70
     Davidson diagonalization with overlap
     ethr =  1.57E-06,  avg # of iterations =  2.0

     total cpu time spent up to now is     1937.4 secs

     total energy              =    -506.08984962 Ry
     Harris-Foulkes estimate   =    -506.08996390 Ry
     estimated scf accuracy    <       0.00007628 Ry

     iteration #  3     ecut=    40.00 Ry     beta=0.70
     Davidson diagonalization with overlap
     ethr =  2.98E-08,  avg # of iterations =  2.0

     total cpu time spent up to now is     2124.7 secs

     End of self-consistent calculation

          k = 0.0000 0.0000 0.0000 ( 18537 PWs)   bands (ev):

   -14.0101 -12.4422 -12.4422 -12.4421 -12.4421 -12.4420 -12.4420 -11.0480
   -11.0479 -11.0479 -11.0479 -11.0479 -11.0479 -11.0478 -11.0478 -11.0478
   -11.0478 -11.0478 -11.0478 -10.6280 -10.6280 -10.6280 -10.6279  -7.9675
    -7.9675  -7.9675  -7.9675  -7.9675  -7.9675  -7.7239  -7.7239  -7.7239
    -7.7239  -7.7239  -7.7239  -7.7238  -7.7238  -7.7238  -7.7238  -7.7238
    -7.7238  -6.7554  -6.7554  -6.7554  -6.7554  -4.5142  -4.5142  -4.5142
    -4.5142  -4.5142  -4.5142  -4.5142  -4.5142  -4.5141  -4.5141  -4.5141
    -4.5141  -2.0392  -2.0392  -2.0392  -2.0392  -2.0391  -2.0391  -2.0391
    -2.0391  -2.0391  -2.0391  -2.0391  -2.0391  -1.8378  -1.8377  -1.8377
    -1.8377  -1.8377  -1.8377  -1.8377  -1.8377  -1.8377  -1.8377  -1.8377
    -1.8377  -1.5951  -1.5951  -1.5951  -1.5951  -1.5951  -1.5951  -0.8256
    -0.8256  -0.8256  -0.8256  -0.8255  -0.8255   0.6701   0.6701   0.6701
     0.6701   0.6701   0.6701   0.6701   0.6701   0.6702   0.6702   0.6702
     0.6702   1.3778   1.3778   1.3778   1.3779   1.3779   1.3779   1.3779
     1.3779   1.3779   1.3779   1.3779   1.3779   1.5124   1.5124   1.5124
     1.5124   1.5124   1.5124   1.5125   1.5125   3.1858   3.1858   3.1858
     9.2020   9.2020   9.2020   9.2020   9.2020   9.2020   9.8205   9.8205
     9.8205   9.8205   9.8206   9.8206  10.6453  10.6453  10.6453  10.6453
    11.5762  11.5762  11.5762  11.5762  11.5762  11.5762  11.5762  11.5762
    11.5762  11.5762  11.5762  11.5762  11.8208  11.8209  11.8209  12.3051
    12.3051  12.3051  12.3051  12.3051  12.3051  12.6985  12.6985  12.6985
    12.6985  12.6985  12.6985  12.6985  12.6985  13.4204  13.4971  13.4971
    13.4971  13.4971  13.4972  13.4972  13.4972  13.4972  13.4972  13.4972
    13.4972  13.4972  14.6441  14.6441  14.6441  14.6441  14.6442  14.6442
    14.6442  14.6442  14.6442  14.6442  14.6442  14.6442  14.8584  14.8584
    14.8584  14.8584  14.8584  14.8584  14.8584  14.8584  14.8584  14.8584
    14.8585  14.8585  15.0867  15.0867  15.0867  15.0867  15.0867  15.0867
    15.0867  15.0867  15.0867  15.0868  15.0868  15.0868  15.9269  15.9269
    15.9269  15.9270  15.9270  15.9270  15.9270  15.9270  15.9270  15.9270
    15.9270  15.9270  16.3627  16.3627  16.3627  16.3627  16.3766  16.3766
    16.3766  16.3766  16.3767  16.3767  16.3767  16.3767  16.3767  16.3767
    16.3767  16.3767

     highest occupied, lowest unoccupied level (ev):     3.1858    9.2020

!    total energy              =    -506.08986661 Ry
     Harris-Foulkes estimate   =    -506.08986737 Ry
     estimated scf accuracy    <       0.00000058 Ry

     convergence has been achieved in   3 iterations

     total energy              =    -506.11096564 Ry
     Harris-Foulkes estimate   =    -506.11096641 Ry
     est. exchange err (dexx)  =       0.02109904 Ry
     - averaged Fock potential =     272.69834102 Ry
     + Fock energy             =    -136.59400140 Ry

     EXX: now go back to refine exchange calculation

     total cpu time spent up to now is     2252.2 secs

     per-process dynamical memory:    85.5 Mb

     Self-consistent Calculation

     iteration #  1     ecut=    40.00 Ry     beta=0.70
     Davidson diagonalization with overlap
     ethr =  2.98E-08,  avg # of iterations =  5.0

     total cpu time spent up to now is     2536.6 secs

     total energy              =    -506.11922715 Ry
     Harris-Foulkes estimate   =    -506.12053088 Ry
     estimated scf accuracy    <       0.00120326 Ry

     iteration #  2     ecut=    40.00 Ry     beta=0.70
     Davidson diagonalization with overlap
     ethr =  4.70E-07,  avg # of iterations =  2.0

     total cpu time spent up to now is     2719.6 secs

     total energy              =    -506.11942278 Ry
     Harris-Foulkes estimate   =    -506.11944225 Ry
     estimated scf accuracy    <       0.00001411 Ry

     iteration #  3     ecut=    40.00 Ry     beta=0.70
     Davidson diagonalization with overlap
     ethr =  5.51E-09,  avg # of iterations =  2.0

     total cpu time spent up to now is     2906.8 secs

     total energy              =    -506.11942517 Ry
     Harris-Foulkes estimate   =    -506.11942677 Ry
     estimated scf accuracy    <       0.00000187 Ry

     iteration #  4     ecut=    40.00 Ry     beta=0.70
     Davidson diagonalization with overlap
     ethr =  7.31E-10,  avg # of iterations =  2.0

     total cpu time spent up to now is     3072.0 secs

     total energy              =    -506.11942579 Ry
     Harris-Foulkes estimate   =    -506.11942645 Ry
     estimated scf accuracy    <       0.00000123 Ry

     iteration #  5     ecut=    40.00 Ry     beta=0.70
     Davidson diagonalization with overlap
     ethr =  4.80E-10,  avg # of iterations =  2.0

     total cpu time spent up to now is     3226.9 secs

     End of self-consistent calculation

          k = 0.0000 0.0000 0.0000 ( 18537 PWs)   bands (ev):

   -13.9901 -12.4238 -12.4238 -12.4238 -12.4238 -12.4238 -12.4238 -11.0318
   -11.0318 -11.0318 -11.0318 -11.0318 -11.0318 -11.0318 -11.0318 -11.0318
   -11.0318 -11.0318 -11.0318 -10.6137 -10.6137 -10.6137 -10.6137  -7.9586
    -7.9586  -7.9586  -7.9586  -7.9586  -7.9586  -7.7152  -7.7152  -7.7152
    -7.7152  -7.7152  -7.7152  -7.7152  -7.7152  -7.7152  -7.7152  -7.7152
    -7.7152  -6.7425  -6.7425  -6.7425  -6.7425  -4.5150  -4.5150  -4.5150
    -4.5150  -4.5150  -4.5150  -4.5150  -4.5150  -4.5150  -4.5150  -4.5150
    -4.5150  -2.0490  -2.0490  -2.0490  -2.0490  -2.0490  -2.0490  -2.0490
    -2.0490  -2.0490  -2.0490  -2.0490  -2.0490  -1.8463  -1.8463  -1.8463
    -1.8463  -1.8463  -1.8463  -1.8463  -1.8463  -1.8463  -1.8463  -1.8463
    -1.8463  -1.6109  -1.6109  -1.6109  -1.6109  -1.6109  -1.6109  -0.8594
    -0.8594  -0.8594  -0.8594  -0.8594  -0.8593   0.6242   0.6242   0.6242
     0.6242   0.6242   0.6242   0.6242   0.6242   0.6242   0.6242   0.6242
     0.6242   1.3226   1.3226   1.3226   1.3226   1.3226   1.3226   1.3226
     1.3226   1.3226   1.3226   1.3226   1.3226   1.4537   1.4537   1.4537
     1.4537   1.4537   1.4537   1.4537   1.4538   3.0977   3.0977   3.0977
     9.2517   9.2517   9.2517   9.2517   9.2517   9.2517   9.8727   9.8727
     9.8727   9.8727   9.8727   9.8727  10.7077  10.7077  10.7077  10.7077
    11.6207  11.6207  11.6207  11.6207  11.6207  11.6208  11.6208  11.6208
    11.6208  11.6208  11.6208  11.6208  11.8752  11.8752  11.8752  12.3416
    12.3416  12.3416  12.3416  12.3416  12.3416  12.7323  12.7323  12.7323
    12.7323  12.7323  12.7323  12.7323  12.7323  13.4945  13.4945  13.4945
    13.4945  13.4945  13.4945  13.4945  13.4945  13.4945  13.4945  13.4945
    13.4945  13.5171  14.6331  14.6331  14.6331  14.6331  14.6331  14.6332
    14.6332  14.6332  14.6332  14.6332  14.6332  14.6332  14.8909  14.8909
    14.8909  14.8909  14.8909  14.8909  14.8909  14.8909  14.8909  14.8909
    14.8909  14.8909  15.1207  15.1207  15.1207  15.1207  15.1207  15.1207
    15.1207  15.1207  15.1207  15.1207  15.1207  15.1207  15.9385  15.9385
    15.9385  15.9385  15.9385  15.9385  15.9385  15.9385  15.9385  15.9385
    15.9385  15.9385  16.3574  16.3574  16.3574  16.3574  16.4145  16.4145
    16.4145  16.4145  16.4145  16.4145  16.4145  16.4145  16.4145  16.4145
    16.4145  16.4145

     highest occupied, lowest unoccupied level (ev):     3.0977    9.2517

!    total energy              =    -506.11942605 Ry
     Harris-Foulkes estimate   =    -506.11942605 Ry
     estimated scf accuracy    <          2.7E-09 Ry

     convergence has been achieved in   5 iterations

     total energy              =    -506.12297273 Ry
     Harris-Foulkes estimate   =    -506.12297273 Ry
     est. exchange err (dexx)  =       0.00354667 Ry
     - averaged Fock potential =     273.41110137 Ry
     + Fock energy             =    -136.82064665 Ry

     EXX: now go back to refine exchange calculation

     total cpu time spent up to now is     3353.9 secs

     per-process dynamical memory:    85.5 Mb

     Self-consistent Calculation

     iteration #  1     ecut=    40.00 Ry     beta=0.70
     Davidson diagonalization with overlap
     ethr =  4.80E-10,  avg # of iterations =  5.0

     total cpu time spent up to now is     3641.8 secs

     total energy              =    -506.12444377 Ry
     Harris-Foulkes estimate   =    -506.12476359 Ry
     estimated scf accuracy    <       0.00031325 Ry

     iteration #  2     ecut=    40.00 Ry     beta=0.70
     Davidson diagonalization with overlap
     ethr =  1.22E-07,  avg # of iterations =  2.0

     total cpu time spent up to now is     3825.4 secs

     total energy              =    -506.12449861 Ry
     Harris-Foulkes estimate   =    -506.12450183 Ry
     estimated scf accuracy    <       0.00000237 Ry

     iteration #  3     ecut=    40.00 Ry     beta=0.70
     Davidson diagonalization with overlap
srun: Job step aborted: Waiting up to 32 seconds for job step to finish.
slurmstepd-midway679: error: *** STEP 39979779.1 ON midway679 CANCELLED AT 2017-11-06T14:53:21 ***
