
     Program PWSCF v.6.1 (svn rev. 13369) starts on  7Nov2017 at 13:43:32 

     This program is part of the open-source Quantum ESPRESSO suite
     for quantum simulation of materials; please cite
         "P. Giannozzi et al., J. Phys.:Condens. Matter 21 395502 (2009);
          URL http://www.quantum-espresso.org", 
     in publications or presentations arising from this work. More details at
     http://www.quantum-espresso.org/quote

     Parallel version (MPI & OpenMP), running on     160 processor cores
     Number of MPI processes:               160
     Threads/MPI process:                     1
     R & G space division:  proc/nbgrp/npool/nimage =     160
     wavefunctions fft division:  fft and procs/group =       8     20
     Reading input from si.in

     Current dimensions of program PWSCF are:
     Max number of different atomic species (ntypx) = 10
     Max number of k-points (npk) =  40000
     Max angular momentum in pseudopotentials (lmaxx) =  3

     IMPORTANT: XC functional enforced from input :
     Exchange-correlation      = PBE0 ( 6  4  8  4 0 0)
     EXX-fraction              =        0.25
     Any further DFT definition will be discarded
     Please, verify this is what you really want

     EXX fraction changed:   0.39

     gamma-point specific algorithms are used

     Subspace diagonalization in iterative solution of the eigenvalue problem:
     one sub-group per band group will be used
     scalapack distributed-memory algorithm (size of sub-group:  8*  8 procs)

     Found symmetry operation: I + (  0.2500  0.2500  0.0000)
     This is a supercell, fractional translations are disabled
EXX: grid of k+q points same as grid of k-points
 
     Parallelization info
     --------------------
     sticks:   dense  smooth     PW     G-vecs:    dense   smooth      PW
     Min          32      32      7                 1832     1832     228
     Max          34      34     10                 1866     1866     242
     Sum        5377    5377   1353               295907   295907   37073
 


     bravais-lattice index     =            1
     lattice parameter (alat)  =      20.5280  a.u.
     unit-cell volume          =    8650.4742 (a.u.)^3
     number of atoms/cell      =           64
     number of atomic types    =            1
     number of electrons       =       256.00
     number of Kohn-Sham states=          250
     kinetic-energy cutoff     =      40.0000  Ry
     charge density cutoff     =     160.0000  Ry
     cutoff for Fock operator  =     160.0000  Ry
     convergence threshold     =      1.0E-06
     mixing beta               =       0.7000
     number of iterations used =            8  plain     mixing
     Exchange-correlation      = PBE0 ( 6  4  8  4 0 0)
     EXX-fraction              =        0.39

     celldm(1)=  20.528000  celldm(2)=   0.000000  celldm(3)=   0.000000
     celldm(4)=   0.000000  celldm(5)=   0.000000  celldm(6)=   0.000000

     crystal axes: (cart. coord. in units of alat)
               a(1) = (   1.000000   0.000000   0.000000 )  
               a(2) = (   0.000000   1.000000   0.000000 )  
               a(3) = (   0.000000   0.000000   1.000000 )  

     reciprocal axes: (cart. coord. in units 2 pi/alat)
               b(1) = (  1.000000  0.000000  0.000000 )  
               b(2) = (  0.000000  1.000000  0.000000 )  
               b(3) = (  0.000000  0.000000  1.000000 )  


     PseudoPot. # 1 for Si read from file:
     ./Si_ONCV_PBE-1.1.upf
     MD5 check sum: 893f9c914d8b8e384479fa6fd8b59ac5
     Pseudo is Norm-conserving, Zval =  4.0
     Generated using ONCVPSP code by D. R. Hamann
     Using radial grid of  602 points,  4 beta functions with: 
                l(1) =   0
                l(2) =   0
                l(3) =   1
                l(4) =   1

     atomic species   valence    mass     pseudopotential
        Si             4.00    28.08600     Si( 1.00)

     No symmetry found



   Cartesian axes

     site n.     atom                  positions (alat units)
         1           Si  tau(   1) = (   0.0625000   0.0625000   0.0625000  )
         2           Si  tau(   2) = (   0.3124999   0.3124999   0.0625000  )
         3           Si  tau(   3) = (   0.3124999   0.0625000   0.3124999  )
         4           Si  tau(   4) = (   0.0625000   0.3124999   0.3124999  )
         5           Si  tau(   5) = (   0.1874999   0.1874999   0.4374998  )
         6           Si  tau(   6) = (   0.0625000   0.0625000   0.5624998  )
         7           Si  tau(   7) = (   0.3124999   0.3124999   0.5624998  )
         8           Si  tau(   8) = (   0.3124999   0.0625000   0.8124997  )
         9           Si  tau(   9) = (   0.0625000   0.3124999   0.8124997  )
        10           Si  tau(  10) = (   0.1874999   0.1874999   0.9374996  )
        11           Si  tau(  11) = (   0.1874999   0.4374998   0.1874999  )
        12           Si  tau(  12) = (   0.0625000   0.5624998   0.0625000  )
        13           Si  tau(  13) = (   0.3124999   0.8124997   0.0625000  )
        14           Si  tau(  14) = (   0.3124999   0.5624998   0.3124999  )
        15           Si  tau(  15) = (   0.0625000   0.8124997   0.3124999  )
        16           Si  tau(  16) = (   0.1874999   0.6874997   0.4374998  )
        17           Si  tau(  17) = (   0.1874999   0.4374998   0.6874997  )
        18           Si  tau(  18) = (   0.0625000   0.5624998   0.5624998  )
        19           Si  tau(  19) = (   0.3124999   0.8124997   0.5624998  )
        20           Si  tau(  20) = (   0.3124999   0.5624998   0.8124997  )
        21           Si  tau(  21) = (   0.0625000   0.8124997   0.8124997  )
        22           Si  tau(  22) = (   0.1874999   0.6874997   0.9374996  )
        23           Si  tau(  23) = (   0.1874999   0.9374996   0.1874999  )
        24           Si  tau(  24) = (   0.1874999   0.9374996   0.6874997  )
        25           Si  tau(  25) = (   0.4374998   0.1874999   0.1874999  )
        26           Si  tau(  26) = (   0.5624998   0.0625000   0.0625000  )
        27           Si  tau(  27) = (   0.8124997   0.3124999   0.0625000  )
        28           Si  tau(  28) = (   0.8124997   0.0625000   0.3124999  )
        29           Si  tau(  29) = (   0.5624998   0.3124999   0.3124999  )
        30           Si  tau(  30) = (   0.6874997   0.1874999   0.4374998  )
        31           Si  tau(  31) = (   0.4374998   0.1874999   0.6874997  )
        32           Si  tau(  32) = (   0.5624998   0.0625000   0.5624998  )
        33           Si  tau(  33) = (   0.8124997   0.3124999   0.5624998  )
        34           Si  tau(  34) = (   0.8124997   0.0625000   0.8124997  )
        35           Si  tau(  35) = (   0.5624998   0.3124999   0.8124997  )
        36           Si  tau(  36) = (   0.6874997   0.1874999   0.9374996  )
        37           Si  tau(  37) = (   0.6874997   0.4374998   0.1874999  )
        38           Si  tau(  38) = (   0.4374998   0.6874997   0.1874999  )
        39           Si  tau(  39) = (   0.5624998   0.5624998   0.0625000  )
        40           Si  tau(  40) = (   0.8124997   0.8124997   0.0625000  )
        41           Si  tau(  41) = (   0.8124997   0.5624998   0.3124999  )
        42           Si  tau(  42) = (   0.5624998   0.8124997   0.3124999  )
        43           Si  tau(  43) = (   0.4374998   0.4374998   0.4374998  )
        44           Si  tau(  44) = (   0.6874997   0.6874997   0.4374998  )
        45           Si  tau(  45) = (   0.6874997   0.4374998   0.6874997  )
        46           Si  tau(  46) = (   0.4374998   0.6874997   0.6874997  )
        47           Si  tau(  47) = (   0.5624998   0.5624998   0.5624998  )
        48           Si  tau(  48) = (   0.8124997   0.8124997   0.5624998  )
        49           Si  tau(  49) = (   0.8124997   0.5624998   0.8124997  )
        50           Si  tau(  50) = (   0.5624998   0.8124997   0.8124997  )
        51           Si  tau(  51) = (   0.4374998   0.4374998   0.9374996  )
        52           Si  tau(  52) = (   0.6874997   0.6874997   0.9374996  )
        53           Si  tau(  53) = (   0.6874997   0.9374996   0.1874999  )
        54           Si  tau(  54) = (   0.4374998   0.9374996   0.4374998  )
        55           Si  tau(  55) = (   0.6874997   0.9374996   0.6874997  )
        56           Si  tau(  56) = (   0.4374998   0.9374996   0.9374996  )
        57           Si  tau(  57) = (   0.9374996   0.1874999   0.1874999  )
        58           Si  tau(  58) = (   0.9374996   0.1874999   0.6874997  )
        59           Si  tau(  59) = (   0.9374996   0.6874997   0.1874999  )
        60           Si  tau(  60) = (   0.9374996   0.4374998   0.4374998  )
        61           Si  tau(  61) = (   0.9374996   0.6874997   0.6874997  )
        62           Si  tau(  62) = (   0.9374996   0.4374998   0.9374996  )
        63           Si  tau(  63) = (   0.9374996   0.9374996   0.4374998  )
        64           Si  tau(  64) = (   0.9374996   0.9374996   0.9374996  )

     number of k points=     1
                       cart. coord. in units 2pi/alat
        k(    1) = (   0.0000000   0.0000000   0.0000000), wk =   2.0000000

     Dense  grid:   147954 G-vectors     FFT dimensions: (  90,  90,  90)

     Estimated max dynamical RAM per process >      61.62MB

     Estimated total allocated dynamical RAM >    9859.14MB

     Initial potential from superposition of free atoms

     starting charge  253.04156, renormalised to  256.00000
     Starting wfc are random

     total cpu time spent up to now is        1.7 secs

     per-process dynamical memory:    30.7 Mb

     Self-consistent Calculation

     iteration #  1     ecut=    40.00 Ry     beta=0.70
     Davidson diagonalization with overlap
     ethr =  1.00E-02,  avg # of iterations =  9.0

     Threshold (ethr) on eigenvalues was too large:
     Diagonalizing with lowered threshold

     Davidson diagonalization with overlap
     ethr =  7.50E-04,  avg # of iterations =  5.0

     total cpu time spent up to now is        5.4 secs

     total energy              =    -503.90671380 Ry
     Harris-Foulkes estimate   =    -504.38765653 Ry
     estimated scf accuracy    <       1.92605610 Ry

     iteration #  2     ecut=    40.00 Ry     beta=0.70
     Davidson diagonalization with overlap
     ethr =  7.52E-04,  avg # of iterations =  1.0

     total cpu time spent up to now is        5.9 secs

     total energy              =    -503.99390417 Ry
     Harris-Foulkes estimate   =    -503.99278470 Ry
     estimated scf accuracy    <       0.07598662 Ry

     iteration #  3     ecut=    40.00 Ry     beta=0.70
     Davidson diagonalization with overlap
     ethr =  2.97E-05,  avg # of iterations =  6.0

     total cpu time spent up to now is        7.4 secs

     total energy              =    -503.99511155 Ry
     Harris-Foulkes estimate   =    -503.99963832 Ry
     estimated scf accuracy    <       0.00753342 Ry

     iteration #  4     ecut=    40.00 Ry     beta=0.70
     Davidson diagonalization with overlap
     ethr =  2.94E-06,  avg # of iterations =  4.0

     total cpu time spent up to now is        8.6 secs

     total energy              =    -503.99338430 Ry
     Harris-Foulkes estimate   =    -504.00629181 Ry
     estimated scf accuracy    <       0.04583310 Ry

     iteration #  5     ecut=    40.00 Ry     beta=0.70
     Davidson diagonalization with overlap
     ethr =  2.94E-06,  avg # of iterations =  3.0

     total cpu time spent up to now is        9.6 secs

     total energy              =    -503.99937013 Ry
     Harris-Foulkes estimate   =    -503.99941141 Ry
     estimated scf accuracy    <       0.00009311 Ry

     iteration #  6     ecut=    40.00 Ry     beta=0.70
     Davidson diagonalization with overlap
     ethr =  3.64E-08,  avg # of iterations =  2.0

     total cpu time spent up to now is       10.3 secs

     total energy              =    -503.99940002 Ry
     Harris-Foulkes estimate   =    -503.99940790 Ry
     estimated scf accuracy    <       0.00002445 Ry

     iteration #  7     ecut=    40.00 Ry     beta=0.70
     Davidson diagonalization with overlap
     ethr =  9.55E-09,  avg # of iterations =  2.0

     total cpu time spent up to now is       10.9 secs

     total energy              =    -503.99940560 Ry
     Harris-Foulkes estimate   =    -503.99940735 Ry
     estimated scf accuracy    <       0.00000520 Ry

     iteration #  8     ecut=    40.00 Ry     beta=0.70
     Davidson diagonalization with overlap
     ethr =  2.03E-09,  avg # of iterations =  2.0

     total cpu time spent up to now is       11.5 secs

     End of self-consistent calculation

          k = 0.0000 0.0000 0.0000 ( 18537 PWs)   bands (ev):

    -5.6967  -4.6148  -4.6148  -4.6148  -4.6147  -4.6147  -4.6147  -3.6527
    -3.6527  -3.6526  -3.6526  -3.6526  -3.6526  -3.6526  -3.6526  -3.6526
    -3.6525  -3.6525  -3.6525  -3.3644  -3.3644  -3.3644  -3.3643  -1.5515
    -1.5515  -1.5515  -1.5515  -1.5515  -1.5514  -1.3871  -1.3871  -1.3870
    -1.3870  -1.3870  -1.3870  -1.3870  -1.3870  -1.3870  -1.3870  -1.3869
    -1.3869  -0.7071  -0.7071  -0.7071  -0.7071   0.7852   0.7853   0.7853
     0.7853   0.7853   0.7853   0.7853   0.7853   0.7853   0.7853   0.7853
     0.7853   2.4104   2.4104   2.4104   2.4105   2.4105   2.4105   2.4105
     2.4105   2.4105   2.4105   2.4105   2.4105   2.5102   2.5102   2.5102
     2.5102   2.5102   2.5102   2.5102   2.5102   2.5103   2.5103   2.5103
     2.5103   2.7489   2.7490   2.7490   2.7490   2.7490   2.7490   3.4178
     3.4178   3.4178   3.4179   3.4179   3.4179   4.3789   4.3789   4.3790
     4.3790   4.3790   4.3790   4.3790   4.3790   4.3790   4.3790   4.3791
     4.3791   4.9436   4.9436   4.9436   4.9436   4.9436   4.9436   4.9436
     4.9436   4.9436   4.9437   4.9437   4.9437   5.0740   5.0740   5.0740
     5.0741   5.0741   5.0741   5.0741   5.0741   6.2703   6.2703   6.2704
     6.9437   6.9437   6.9437   6.9438   6.9438   6.9438   7.3714   7.3714
     7.3714   7.3714   7.3714   7.3714   7.7757   7.7758   7.7758   7.7758
     8.6862   8.6862   8.6862   8.6862   8.6862   8.6862   8.6862   8.6862
     8.6862   8.6863   8.6863   8.6863   8.8110   8.8110   8.8110   9.3619
     9.3619   9.3619   9.3620   9.3620   9.3620   9.5746   9.5746   9.5746
     9.5746   9.5746   9.5746   9.5747   9.5747   9.6018  10.5057  10.5057
    10.5057  10.5057  10.5057  10.5057  10.5057  10.5057  10.5058  10.5058
    10.5058  10.5058  11.0324  11.0324  11.0324  11.0324  11.0324  11.0324
    11.0324  11.0324  11.0324  11.0324  11.0324  11.0325  11.2405  11.2405
    11.2405  11.2405  11.2405  11.2405  11.2405  11.2405  11.2405  11.2405
    11.2405  11.2405  11.3723  11.3723  11.3723  11.3723  11.3723  11.3723
    11.3723  11.3723  11.3723  11.3724  11.3724  11.3724  12.0010  12.0010
    12.0010  12.0010  12.0010  12.0010  12.0010  12.0010  12.0011  12.0011
    12.0011  12.0011  12.3868  12.3868  12.3868  12.3869  12.3869  12.3869
    12.3869  12.3869  12.3869  12.3869  12.3869  12.3869  12.6606  12.6606
    12.6607  12.6607

     highest occupied, lowest unoccupied level (ev):     6.2704    6.9437

!    total energy              =    -503.99940659 Ry
     Harris-Foulkes estimate   =    -503.99940672 Ry
     estimated scf accuracy    <       0.00000023 Ry

     convergence has been achieved in   8 iterations

     EXX: now go back to refine exchange calculation

     total cpu time spent up to now is       74.6 secs

     per-process dynamical memory:    57.5 Mb

     Self-consistent Calculation

     iteration #  1     ecut=    40.00 Ry     beta=0.70
     Davidson diagonalization with overlap
     ethr =  2.03E-09,  avg # of iterations =  7.0

     total cpu time spent up to now is      509.0 secs

     total energy              =    -504.62106628 Ry
     Harris-Foulkes estimate   =    -504.62271313 Ry
     estimated scf accuracy    <       0.00410531 Ry

     iteration #  2     ecut=    40.00 Ry     beta=0.70
     Davidson diagonalization with overlap
     ethr =  1.60E-06,  avg # of iterations =  1.0

     total cpu time spent up to now is      659.2 secs

     total energy              =    -504.62106761 Ry
     Harris-Foulkes estimate   =    -504.62116088 Ry
     estimated scf accuracy    <       0.00025934 Ry

     iteration #  3     ecut=    40.00 Ry     beta=0.70
     Davidson diagonalization with overlap
     ethr =  1.01E-07,  avg # of iterations =  2.0

     total cpu time spent up to now is      813.8 secs

     total energy              =    -504.62108352 Ry
     Harris-Foulkes estimate   =    -504.62109875 Ry
     estimated scf accuracy    <       0.00003630 Ry

     iteration #  4     ecut=    40.00 Ry     beta=0.70
     Davidson diagonalization with overlap
     ethr =  1.42E-08,  avg # of iterations =  2.0

     total cpu time spent up to now is      965.6 secs

     total energy              =    -504.62109165 Ry
     Harris-Foulkes estimate   =    -504.62109186 Ry
     estimated scf accuracy    <       0.00000104 Ry

     iteration #  5     ecut=    40.00 Ry     beta=0.70
     Davidson diagonalization with overlap
     ethr =  4.05E-10,  avg # of iterations =  2.0

     total cpu time spent up to now is     1138.8 secs

     End of self-consistent calculation

          k = 0.0000 0.0000 0.0000 ( 18537 PWs)   bands (ev):

    -8.9421  -7.6695  -7.6695  -7.6694  -7.6694  -7.6693  -7.6692  -6.5362
    -6.5362  -6.5362  -6.5362  -6.5361  -6.5361  -6.5361  -6.5361  -6.5360
    -6.5360  -6.5359  -6.5359  -6.1935  -6.1934  -6.1934  -6.1934  -4.0447
    -4.0446  -4.0446  -4.0446  -4.0446  -4.0446  -3.8493  -3.8492  -3.8492
    -3.8492  -3.8491  -3.8491  -3.8491  -3.8491  -3.8491  -3.8490  -3.8490
    -3.8490  -3.0643  -3.0643  -3.0643  -3.0643  -1.2625  -1.2624  -1.2624
    -1.2624  -1.2624  -1.2624  -1.2624  -1.2624  -1.2623  -1.2623  -1.2623
    -1.2623   0.7072   0.7072   0.7073   0.7073   0.7073   0.7073   0.7074
     0.7074   0.7074   0.7074   0.7074   0.7074   0.8459   0.8459   0.8459
     0.8459   0.8460   0.8460   0.8460   0.8460   0.8460   0.8460   0.8460
     0.8461   1.0900   1.0900   1.0900   1.0900   1.0900   1.0900   1.8148
     1.8148   1.8148   1.8148   1.8149   1.8149   2.9984   2.9984   2.9984
     2.9985   2.9985   2.9985   2.9985   2.9985   2.9985   2.9985   2.9986
     2.9986   3.6253   3.6253   3.6253   3.6253   3.6253   3.6253   3.6254
     3.6254   3.6254   3.6254   3.6254   3.6254   3.7595   3.7595   3.7595
     3.7595   3.7595   3.7595   3.7595   3.7596   5.1674   5.1674   5.1674
     7.7900   7.7900   7.7900   7.7900   7.7900   7.7900   8.2904   8.2904
     8.2904   8.2904   8.2905   8.2905   8.8466   8.8466   8.8466   8.8466
     9.7873   9.7873   9.7873   9.7873   9.7873   9.7873   9.7873   9.7874
     9.7874   9.7874   9.7874   9.7874   9.9471   9.9471   9.9471  10.4920
    10.4920  10.4921  10.4921  10.4921  10.4921  10.7786  10.7786  10.7786
    10.7786  10.7786  10.7786  10.7786  10.7786  11.0109  11.6859  11.6859
    11.6859  11.6859  11.6859  11.6859  11.6859  11.6859  11.6860  11.6860
    11.6860  11.6860  12.5137  12.5137  12.5137  12.5137  12.5138  12.5138
    12.5138  12.5138  12.5138  12.5138  12.5138  12.5138  12.6675  12.6675
    12.6675  12.6675  12.6675  12.6675  12.6675  12.6675  12.6676  12.6676
    12.6676  12.6676  12.7291  12.7291  12.7291  12.7291  12.7291  12.7291
    12.7291  12.7291  12.7291  12.7291  12.7291  12.7291  13.5310  13.5310
    13.5310  13.5310  13.5311  13.5311  13.5311  13.5311  13.5311  13.5311
    13.5311  13.5311  13.9279  13.9279  13.9280  13.9280  13.9280  13.9280
    13.9280  13.9280  13.9281  13.9281  13.9281  13.9281  14.1258  14.1259
    14.1259  14.1259

     highest occupied, lowest unoccupied level (ev):     5.1674    7.7900

!    total energy              =    -504.62109175 Ry
     Harris-Foulkes estimate   =    -504.62109207 Ry
     estimated scf accuracy    <       0.00000040 Ry

     convergence has been achieved in   5 iterations

     total energy              =    -504.63956214 Ry
     Harris-Foulkes estimate   =    -504.63956247 Ry
     est. exchange err (dexx)  =       0.01847039 Ry
     - averaged Fock potential =     105.35650382 Ry
     + Fock energy             =     -52.79726514 Ry

     EXX: now go back to refine exchange calculation

     total cpu time spent up to now is     1265.8 secs

     per-process dynamical memory:    61.3 Mb

     Self-consistent Calculation

     iteration #  1     ecut=    40.00 Ry     beta=0.70
     Davidson diagonalization with overlap
     ethr =  4.05E-10,  avg # of iterations =  6.0

     total cpu time spent up to now is     1589.3 secs

     total energy              =    -504.64316492 Ry
     Harris-Foulkes estimate   =    -504.64337150 Ry
     estimated scf accuracy    <       0.00040197 Ry

     iteration #  2     ecut=    40.00 Ry     beta=0.70
     Davidson diagonalization with overlap
     ethr =  1.57E-07,  avg # of iterations =  1.0

     total cpu time spent up to now is     1737.7 secs

     total energy              =    -504.64318153 Ry
     Harris-Foulkes estimate   =    -504.64319124 Ry
     estimated scf accuracy    <       0.00001756 Ry

     iteration #  3     ecut=    40.00 Ry     beta=0.70
     Davidson diagonalization with overlap
     ethr =  6.86E-09,  avg # of iterations =  2.0

     total cpu time spent up to now is     1905.3 secs

     total energy              =    -504.64318153 Ry
     Harris-Foulkes estimate   =    -504.64318863 Ry
     estimated scf accuracy    <       0.00001391 Ry

     iteration #  4     ecut=    40.00 Ry     beta=0.70
     Davidson diagonalization with overlap
     ethr =  5.43E-09,  avg # of iterations =  2.0

     total cpu time spent up to now is     2064.3 secs

     total energy              =    -504.64318479 Ry
     Harris-Foulkes estimate   =    -504.64318549 Ry
     estimated scf accuracy    <       0.00000136 Ry

     iteration #  5     ecut=    40.00 Ry     beta=0.70
     Davidson diagonalization with overlap
     ethr =  5.33E-10,  avg # of iterations =  2.0

     total cpu time spent up to now is     2223.9 secs

     End of self-consistent calculation

          k = 0.0000 0.0000 0.0000 ( 18537 PWs)   bands (ev):

    -8.9306  -7.6584  -7.6583  -7.6582  -7.6582  -7.6582  -7.6581  -6.5260
    -6.5260  -6.5260  -6.5260  -6.5259  -6.5259  -6.5259  -6.5259  -6.5258
    -6.5258  -6.5258  -6.5258  -6.1844  -6.1844  -6.1844  -6.1844  -4.0384
    -4.0384  -4.0384  -4.0384  -4.0384  -4.0384  -3.8419  -3.8419  -3.8419
    -3.8419  -3.8418  -3.8418  -3.8418  -3.8418  -3.8418  -3.8418  -3.8417
    -3.8417  -3.0558  -3.0558  -3.0558  -3.0558  -1.2595  -1.2595  -1.2595
    -1.2595  -1.2594  -1.2594  -1.2594  -1.2594  -1.2594  -1.2594  -1.2593
    -1.2593   0.7025   0.7025   0.7025   0.7025   0.7026   0.7026   0.7026
     0.7026   0.7026   0.7026   0.7026   0.7027   0.8430   0.8430   0.8430
     0.8430   0.8430   0.8430   0.8430   0.8430   0.8431   0.8431   0.8431
     0.8431   1.0876   1.0876   1.0876   1.0876   1.0876   1.0876   1.7937
     1.7937   1.7937   1.7937   1.7937   1.7937   2.9727   2.9727   2.9727
     2.9728   2.9728   2.9728   2.9728   2.9728   2.9728   2.9728   2.9728
     2.9728   3.5936   3.5936   3.5936   3.5936   3.5936   3.5937   3.5937
     3.5937   3.5937   3.5937   3.5937   3.5937   3.7252   3.7252   3.7252
     3.7252   3.7252   3.7252   3.7252   3.7252   5.1165   5.1165   5.1165
     7.8224   7.8224   7.8224   7.8224   7.8224   7.8224   8.3231   8.3231
     8.3231   8.3231   8.3231   8.3232   8.8898   8.8898   8.8898   8.8898
     9.8169   9.8169   9.8169   9.8169   9.8169   9.8169   9.8169   9.8169
     9.8169   9.8169   9.8169   9.8169   9.9798   9.9798   9.9798  10.5158
    10.5158  10.5158  10.5158  10.5158  10.5158  10.7985  10.7985  10.7985
    10.7985  10.7985  10.7985  10.7985  10.7985  11.0778  11.6861  11.6861
    11.6861  11.6861  11.6861  11.6861  11.6861  11.6861  11.6861  11.6862
    11.6862  11.6862  12.5322  12.5322  12.5322  12.5322  12.5323  12.5323
    12.5323  12.5323  12.5323  12.5323  12.5323  12.5323  12.6638  12.6638
    12.6639  12.6639  12.6639  12.6639  12.6639  12.6639  12.6639  12.6639
    12.6639  12.6639  12.7494  12.7494  12.7494  12.7494  12.7494  12.7494
    12.7494  12.7494  12.7494  12.7494  12.7494  12.7494  13.5383  13.5383
    13.5383  13.5383  13.5383  13.5383  13.5383  13.5383  13.5384  13.5384
    13.5384  13.5384  13.9513  13.9514  13.9514  13.9514  13.9514  13.9514
    13.9514  13.9514  13.9514  13.9514  13.9514  13.9514  14.1214  14.1214
    14.1214  14.1214

     highest occupied, lowest unoccupied level (ev):     5.1165    7.8224

!    total energy              =    -504.64318477 Ry
     Harris-Foulkes estimate   =    -504.64318534 Ry
     estimated scf accuracy    <       0.00000060 Ry

     convergence has been achieved in   5 iterations

     total energy              =    -504.64397093 Ry
     Harris-Foulkes estimate   =    -504.64397150 Ry
     est. exchange err (dexx)  =       0.00078616 Ry
     - averaged Fock potential =     105.65463628 Ry
     + Fock energy             =     -52.85815729 Ry

     EXX: now go back to refine exchange calculation

     total cpu time spent up to now is     2351.3 secs

     per-process dynamical memory:    61.3 Mb

     Self-consistent Calculation

     iteration #  1     ecut=    40.00 Ry     beta=0.70
     Davidson diagonalization with overlap
     ethr =  5.33E-10,  avg # of iterations =  5.0

     total cpu time spent up to now is     2632.1 secs

     total energy              =    -504.64414545 Ry
     Harris-Foulkes estimate   =    -504.64416936 Ry
     estimated scf accuracy    <       0.00004094 Ry

     iteration #  2     ecut=    40.00 Ry     beta=0.70
     Davidson diagonalization with overlap
     ethr =  1.60E-08,  avg # of iterations =  2.0

     total cpu time spent up to now is     2789.4 secs

     total energy              =    -504.64414324 Ry
     Harris-Foulkes estimate   =    -504.64415531 Ry
     estimated scf accuracy    <       0.00001774 Ry

     iteration #  3     ecut=    40.00 Ry     beta=0.70
     Davidson diagonalization with overlap
     ethr =  6.93E-09,  avg # of iterations =  2.0

     total cpu time spent up to now is     2949.1 secs

     total energy              =    -504.64414785 Ry
     Harris-Foulkes estimate   =    -504.64415515 Ry
     estimated scf accuracy    <       0.00001800 Ry

     iteration #  4     ecut=    40.00 Ry     beta=0.70
     Davidson diagonalization with overlap
     ethr =  6.93E-09,  avg # of iterations =  2.0

     total cpu time spent up to now is     3111.4 secs

     End of self-consistent calculation

          k = 0.0000 0.0000 0.0000 ( 18537 PWs)   bands (ev):

    -8.9279  -7.6559  -7.6558  -7.6557  -7.6557  -7.6556  -7.6555  -6.5238
    -6.5238  -6.5237  -6.5237  -6.5236  -6.5236  -6.5236  -6.5236  -6.5235
    -6.5234  -6.5234  -6.5234  -6.1823  -6.1823  -6.1823  -6.1823  -4.0370
    -4.0370  -4.0370  -4.0370  -4.0370  -4.0370  -3.8404  -3.8404  -3.8404
    -3.8404  -3.8403  -3.8403  -3.8403  -3.8403  -3.8402  -3.8402  -3.8402
    -3.8401  -3.0538  -3.0537  -3.0537  -3.0537  -1.2589  -1.2589  -1.2589
    -1.2589  -1.2588  -1.2588  -1.2588  -1.2588  -1.2587  -1.2587  -1.2587
    -1.2587   0.7021   0.7021   0.7022   0.7022   0.7023   0.7023   0.7023
     0.7023   0.7023   0.7023   0.7024   0.7024   0.8429   0.8429   0.8429
     0.8429   0.8430   0.8430   0.8430   0.8430   0.8431   0.8431   0.8431
     0.8431   1.0866   1.0866   1.0866   1.0866   1.0866   1.0866   1.7900
     1.7900   1.7900   1.7900   1.7900   1.7900   2.9678   2.9679   2.9679
     2.9679   2.9679   2.9679   2.9680   2.9680   2.9680   2.9680   2.9680
     2.9681   3.5873   3.5873   3.5873   3.5873   3.5874   3.5874   3.5874
     3.5874   3.5875   3.5875   3.5875   3.5875   3.7184   3.7184   3.7184
     3.7184   3.7184   3.7184   3.7184   3.7184   5.1058   5.1058   5.1059
     7.8295   7.8295   7.8295   7.8295   7.8295   7.8295   8.3305   8.3305
     8.3305   8.3305   8.3305   8.3305   8.8987   8.8987   8.8987   8.8987
     9.8235   9.8235   9.8235   9.8235   9.8235   9.8235   9.8235   9.8235
     9.8236   9.8236   9.8236   9.8236   9.9876   9.9876   9.9876  10.5214
    10.5214  10.5214  10.5214  10.5214  10.5214  10.8035  10.8035  10.8035
    10.8035  10.8035  10.8035  10.8035  10.8035  11.0913  11.6861  11.6861
    11.6861  11.6861  11.6861  11.6861  11.6861  11.6861  11.6862  11.6862
    11.6862  11.6862  12.5373  12.5373  12.5373  12.5373  12.5373  12.5373
    12.5373  12.5374  12.5374  12.5374  12.5374  12.5374  12.6626  12.6626
    12.6626  12.6626  12.6626  12.6627  12.6627  12.6627  12.6627  12.6627
    12.6628  12.6628  12.7546  12.7546  12.7546  12.7546  12.7547  12.7547
    12.7547  12.7547  12.7547  12.7547  12.7547  12.7547  13.5402  13.5402
    13.5402  13.5402  13.5403  13.5403  13.5403  13.5403  13.5403  13.5403
    13.5403  13.5404  13.9569  13.9569  13.9569  13.9569  13.9569  13.9569
    13.9570  13.9570  13.9570  13.9570  13.9570  13.9570  14.1211  14.1211
    14.1211  14.1211

     highest occupied, lowest unoccupied level (ev):     5.1059    7.8295

!    total energy              =    -504.64415085 Ry
     Harris-Foulkes estimate   =    -504.64415124 Ry
     estimated scf accuracy    <       0.00000042 Ry

     convergence has been achieved in   4 iterations

     total energy              =    -504.64419358 Ry
     Harris-Foulkes estimate   =    -504.64419397 Ry
     est. exchange err (dexx)  =       0.00004274 Ry
     - averaged Fock potential =     105.73230503 Ry
     + Fock energy             =     -52.87419047 Ry

     EXX: now go back to refine exchange calculation

     total cpu time spent up to now is     3237.6 secs

     per-process dynamical memory:    61.3 Mb

     Self-consistent Calculation

     iteration #  1     ecut=    40.00 Ry     beta=0.70
     Davidson diagonalization with overlap
     ethr =  6.93E-09,  avg # of iterations =  3.0

     total cpu time spent up to now is     3440.1 secs

     total energy              =    -504.64420227 Ry
     Harris-Foulkes estimate   =    -504.64420581 Ry
     estimated scf accuracy    <       0.00000504 Ry

     iteration #  2     ecut=    40.00 Ry     beta=0.70
     Davidson diagonalization with overlap
     ethr =  1.97E-09,  avg # of iterations =  2.0

     total cpu time spent up to now is     3608.6 secs

     total energy              =    -504.64420207 Ry
     Harris-Foulkes estimate   =    -504.64420565 Ry
     estimated scf accuracy    <       0.00000705 Ry

     iteration #  3     ecut=    40.00 Ry     beta=0.70
     Davidson diagonalization with overlap
     ethr =  1.97E-09,  avg # of iterations =  2.0

     total cpu time spent up to now is     3771.4 secs

     End of self-consistent calculation

          k = 0.0000 0.0000 0.0000 ( 18537 PWs)   bands (ev):

    -8.9273  -7.6552  -7.6552  -7.6551  -7.6551  -7.6551  -7.6551  -6.5232
    -6.5231  -6.5231  -6.5231  -6.5231  -6.5231  -6.5231  -6.5231  -6.5231
    -6.5230  -6.5230  -6.5230  -6.1819  -6.1819  -6.1819  -6.1819  -4.0367
    -4.0367  -4.0367  -4.0367  -4.0367  -4.0367  -3.8401  -3.8401  -3.8401
    -3.8401  -3.8400  -3.8400  -3.8400  -3.8400  -3.8400  -3.8400  -3.8400
    -3.8400  -3.0533  -3.0533  -3.0533  -3.0532  -1.2588  -1.2588  -1.2588
    -1.2588  -1.2588  -1.2588  -1.2588  -1.2588  -1.2587  -1.2587  -1.2587
    -1.2587   0.7023   0.7023   0.7023   0.7023   0.7023   0.7023   0.7023
     0.7023   0.7023   0.7023   0.7024   0.7024   0.8431   0.8431   0.8431
     0.8431   0.8431   0.8431   0.8431   0.8431   0.8431   0.8431   0.8431
     0.8431   1.0863   1.0863   1.0863   1.0863   1.0863   1.0863   1.7893
     1.7893   1.7893   1.7893   1.7893   1.7893   2.9669   2.9669   2.9669
     2.9669   2.9669   2.9669   2.9669   2.9669   2.9670   2.9670   2.9670
     2.9670   3.5860   3.5860   3.5860   3.5860   3.5861   3.5861   3.5861
     3.5861   3.5861   3.5861   3.5861   3.5861   3.7169   3.7169   3.7169
     3.7169   3.7169   3.7169   3.7169   3.7169   5.1034   5.1034   5.1034
     7.8311   7.8311   7.8311   7.8311   7.8311   7.8311   8.3322   8.3322
     8.3323   8.3323   8.3323   8.3323   8.9006   8.9006   8.9006   8.9006
     9.8251   9.8251   9.8251   9.8251   9.8251   9.8251   9.8251   9.8251
     9.8251   9.8251   9.8251   9.8251   9.9895   9.9895   9.9895  10.5228
    10.5228  10.5228  10.5228  10.5228  10.5228  10.8048  10.8049  10.8049
    10.8049  10.8049  10.8049  10.8049  10.8049  11.0941  11.6861  11.6861
    11.6861  11.6861  11.6862  11.6862  11.6862  11.6862  11.6862  11.6862
    11.6862  11.6862  12.5386  12.5386  12.5386  12.5386  12.5387  12.5387
    12.5387  12.5387  12.5387  12.5387  12.5387  12.5387  12.6623  12.6623
    12.6623  12.6623  12.6623  12.6623  12.6623  12.6623  12.6624  12.6624
    12.6624  12.6624  12.7559  12.7560  12.7560  12.7560  12.7560  12.7560
    12.7560  12.7560  12.7560  12.7560  12.7560  12.7560  13.5407  13.5408
    13.5408  13.5408  13.5408  13.5408  13.5408  13.5408  13.5408  13.5408
    13.5408  13.5408  13.9582  13.9582  13.9582  13.9582  13.9583  13.9583
    13.9583  13.9583  13.9583  13.9583  13.9583  13.9583  14.1211  14.1211
    14.1211  14.1211

     highest occupied, lowest unoccupied level (ev):     5.1034    7.8311

!    total energy              =    -504.64420340 Ry
     Harris-Foulkes estimate   =    -504.64420415 Ry
     estimated scf accuracy    <       0.00000079 Ry

     convergence has been achieved in   3 iterations

     total energy              =    -504.64420603 Ry
     Harris-Foulkes estimate   =    -504.64420679 Ry
     est. exchange err (dexx)  =       0.00000263 Ry
     - averaged Fock potential =     105.75252886 Ry
     + Fock energy             =     -52.87834103 Ry

     EXX: now go back to refine exchange calculation

     total cpu time spent up to now is     3900.5 secs

     per-process dynamical memory:    61.3 Mb

     Self-consistent Calculation

     iteration #  1     ecut=    40.00 Ry     beta=0.70
     Davidson diagonalization with overlap
     ethr =  1.97E-09,  avg # of iterations =  2.0

     total cpu time spent up to now is     4086.9 secs

     total energy              =    -504.64420223 Ry
     Harris-Foulkes estimate   =    -504.64420874 Ry
     estimated scf accuracy    <       0.00000742 Ry

     iteration #  2     ecut=    40.00 Ry     beta=0.70
     Davidson diagonalization with overlap
     ethr =  2.90E-09,  avg # of iterations =  3.0

     total cpu time spent up to now is     4255.4 secs

     total energy              =    -504.64420154 Ry
     Harris-Foulkes estimate   =    -504.64421416 Ry
     estimated scf accuracy    <       0.00003240 Ry

     iteration #  3     ecut=    40.00 Ry     beta=0.70
     Davidson diagonalization with overlap
     ethr =  2.90E-09,  avg # of iterations =  2.0

     total cpu time spent up to now is     4415.9 secs

     End of self-consistent calculation

          k = 0.0000 0.0000 0.0000 ( 18537 PWs)   bands (ev):

    -8.9271  -7.6550  -7.6550  -7.6550  -7.6550  -7.6550  -7.6550  -6.5230
    -6.5230  -6.5230  -6.5230  -6.5230  -6.5230  -6.5230  -6.5230  -6.5230
    -6.5230  -6.5230  -6.5229  -6.1818  -6.1818  -6.1818  -6.1818  -4.0366
    -4.0366  -4.0366  -4.0366  -4.0366  -4.0366  -3.8400  -3.8400  -3.8400
    -3.8400  -3.8400  -3.8400  -3.8400  -3.8400  -3.8400  -3.8400  -3.8399
    -3.8399  -3.0531  -3.0531  -3.0531  -3.0531  -1.2588  -1.2588  -1.2588
    -1.2588  -1.2588  -1.2587  -1.2587  -1.2587  -1.2587  -1.2587  -1.2587
    -1.2587   0.7024   0.7024   0.7024   0.7024   0.7024   0.7024   0.7024
     0.7024   0.7024   0.7024   0.7024   0.7024   0.8432   0.8432   0.8432
     0.8432   0.8432   0.8432   0.8432   0.8432   0.8432   0.8432   0.8432
     0.8432   1.0862   1.0862   1.0862   1.0862   1.0862   1.0862   1.7892
     1.7892   1.7892   1.7892   1.7892   1.7892   2.9667   2.9667   2.9667
     2.9667   2.9667   2.9667   2.9667   2.9667   2.9667   2.9667   2.9667
     2.9667   3.5858   3.5858   3.5858   3.5858   3.5858   3.5858   3.5858
     3.5858   3.5858   3.5858   3.5858   3.5858   3.7166   3.7166   3.7166
     3.7166   3.7166   3.7166   3.7166   3.7166   5.1028   5.1028   5.1028
     7.8315   7.8315   7.8315   7.8315   7.8315   7.8315   8.3327   8.3327
     8.3327   8.3327   8.3327   8.3327   8.9011   8.9011   8.9011   8.9011
     9.8255   9.8255   9.8255   9.8255   9.8255   9.8255   9.8255   9.8255
     9.8255   9.8255   9.8255   9.8255   9.9900   9.9900   9.9900  10.5231
    10.5231  10.5231  10.5231  10.5231  10.5231  10.8052  10.8052  10.8052
    10.8052  10.8052  10.8052  10.8052  10.8052  11.0947  11.6862  11.6862
    11.6862  11.6862  11.6862  11.6862  11.6862  11.6862  11.6862  11.6862
    11.6862  11.6862  12.5390  12.5390  12.5390  12.5390  12.5390  12.5390
    12.5390  12.5390  12.5390  12.5390  12.5390  12.5390  12.6623  12.6623
    12.6623  12.6623  12.6623  12.6623  12.6623  12.6623  12.6623  12.6623
    12.6623  12.6623  12.7563  12.7563  12.7563  12.7563  12.7563  12.7563
    12.7563  12.7563  12.7563  12.7563  12.7563  12.7563  13.5409  13.5409
    13.5409  13.5409  13.5409  13.5409  13.5409  13.5409  13.5409  13.5409
    13.5409  13.5409  13.9586  13.9586  13.9586  13.9586  13.9586  13.9586
    13.9586  13.9586  13.9586  13.9586  13.9586  13.9586  14.1211  14.1211
    14.1211  14.1211

     highest occupied, lowest unoccupied level (ev):     5.1028    7.8315

!    total energy              =    -504.64420708 Ry
     Harris-Foulkes estimate   =    -504.64420708 Ry
     estimated scf accuracy    <          3.3E-09 Ry

     convergence has been achieved in   3 iterations

!!   total energy              =    -504.64420726 Ry
     Harris-Foulkes estimate   =    -504.64420726 Ry
     est. exchange err (dexx)  =       0.00000019 Ry
     - averaged Fock potential =     105.75771751 Ry
     + Fock energy             =     -52.87937667 Ry

     EXX self-consistency reached

     Writing output data file si.save
 
     init_run     :      0.47s CPU      0.66s WALL (       1 calls)
     electrons    :   2981.16s CPU   3844.28s WALL (       6 calls)

     Called by init_run:
     wfcinit      :      0.23s CPU      0.33s WALL (       1 calls)
     potinit      :      0.05s CPU      0.10s WALL (       1 calls)

     Called by electrons:
     c_bands      :   2979.13s CPU   3839.33s WALL (      29 calls)
     sum_band     :      1.22s CPU      1.27s WALL (      29 calls)
     v_of_rho     :      0.50s CPU      0.68s WALL (      30 calls)
     mix_rho      :      0.05s CPU      0.08s WALL (      29 calls)

     Called by c_bands:
     init_us_2    :      0.02s CPU      0.05s WALL (      70 calls)
     regterg      :   2979.03s CPU   3839.18s WALL (      29 calls)

     Called by sum_band:

     Called by *egterg:
     h_psi        :   2961.10s CPU   3821.06s WALL (     116 calls)
     g_psi        :      0.00s CPU      0.01s WALL (      86 calls)
     rdiaghg      :     14.03s CPU     14.19s WALL (     109 calls)

     Called by h_psi:
     h_psi:pot    :      6.49s CPU      6.62s WALL (     116 calls)
     h_psi:calbec :      0.60s CPU      0.63s WALL (     116 calls)
     vloc_psi     :      5.61s CPU      5.65s WALL (     116 calls)
     vloc_psi:tg_ :      0.05s CPU      0.05s WALL (     116 calls)
     add_vuspsi   :      0.28s CPU      0.34s WALL (     116 calls)

     General routines
     calbec       :      0.68s CPU      0.71s WALL (     127 calls)
     fft          :      0.68s CPU      0.85s WALL (     323 calls)
     fftw         :      6.47s CPU      6.33s WALL (    3010 calls)
     fftc         :   3419.68s CPU   4227.84s WALL ( 1974086 calls)
     fftcw        :    128.94s CPU    147.09s WALL (  152933 calls)
 
     Parallel routines
     fft_scatter  :   3404.26s CPU   3947.84s WALL ( 2130352 calls)
     ALLTOALL     :      0.33s CPU      0.30s WALL (    3010 calls)

     EXX routines
     exx_grid     :      0.00s CPU      0.00s WALL (       1 calls)
     exxinit      :      0.68s CPU      0.70s WALL (       6 calls)
     vexx         :   2954.60s CPU   3814.43s WALL (      72 calls)
     exxenergy    :    612.52s CPU    698.35s WALL (      11 calls)
 
     PWSCF        :     0h59m CPU        1h15m WALL

 
   This run was terminated on:  14:59:20   7Nov2017            

=------------------------------------------------------------------------------=
   JOB DONE.
=------------------------------------------------------------------------------=
