
     Program PWSCF v.6.1 (svn rev. 13369) starts on 27Apr2018 at  9:38: 5 

     This program is part of the open-source Quantum ESPRESSO suite
     for quantum simulation of materials; please cite
         "P. Giannozzi et al., J. Phys.:Condens. Matter 21 395502 (2009);
          URL http://www.quantum-espresso.org", 
     in publications or presentations arising from this work. More details at
     http://www.quantum-espresso.org/quote

     Parallel version (MPI & OpenMP), running on      40 processor cores
     Number of MPI processes:                40
     Threads/MPI process:                     1
     R & G space division:  proc/nbgrp/npool/nimage =      40
     Waiting for input...
     Reading input from standard input

     Current dimensions of program PWSCF are:
     Max number of different atomic species (ntypx) = 10
     Max number of k-points (npk) =  40000
     Max angular momentum in pseudopotentials (lmaxx) =  3

     gamma-point specific algorithms are used

     Subspace diagonalization in iterative solution of the eigenvalue problem:
     one sub-group per band group will be used
     scalapack distributed-memory algorithm (size of sub-group:  4*  4 procs)

 
     Parallelization info
     --------------------
     sticks:   dense  smooth     PW     G-vecs:    dense   smooth      PW
     Min         608     608    151                71460    71460    8926
     Max         610     610    158                71470    71470    8932
     Sum       24345   24345   6093              2858633  2858633  357213
 


     bravais-lattice index     =            1
     lattice parameter (alat)  =      30.0000  a.u.
     unit-cell volume          =   27000.0000 (a.u.)^3
     number of atoms/cell      =           12
     number of atomic types    =            2
     number of electrons       =        30.00
     number of Kohn-Sham states=          100
     kinetic-energy cutoff     =      85.0000  Ry
     charge density cutoff     =     340.0000  Ry
     convergence threshold     =      1.0E-06
     mixing beta               =       0.4000
     number of iterations used =            8  plain     mixing
     Exchange-correlation      = PBE ( 1  4  3  4 0 0)

     celldm(1)=  30.000000  celldm(2)=   0.000000  celldm(3)=   0.000000
     celldm(4)=   0.000000  celldm(5)=   0.000000  celldm(6)=   0.000000

     crystal axes: (cart. coord. in units of alat)
               a(1) = (   1.000000   0.000000   0.000000 )  
               a(2) = (   0.000000   1.000000   0.000000 )  
               a(3) = (   0.000000   0.000000   1.000000 )  

     reciprocal axes: (cart. coord. in units 2 pi/alat)
               b(1) = (  1.000000  0.000000  0.000000 )  
               b(2) = (  0.000000  1.000000  0.000000 )  
               b(3) = (  0.000000  0.000000  1.000000 )  


     PseudoPot. # 1 for C  read from file:
     ~/PseudoPotential/upf/C_ONCV_PBE-1.0.upf
     MD5 check sum: Not computed, couldn't open file
     Pseudo is Norm-conserving, Zval =  4.0
     Generated using ONCVPSP code by D. R. Hamann
     Using radial grid of  602 points,  4 beta functions with: 
                l(1) =   0
                l(2) =   0
                l(3) =   1
                l(4) =   1

     PseudoPot. # 2 for H  read from file:
     ~/PseudoPotential/upf/H_ONCV_PBE-1.0.upf
     MD5 check sum: Not computed, couldn't open file
     Pseudo is Norm-conserving, Zval =  1.0
     Generated using ONCVPSP code by D. R. Hamann
     Using radial grid of  602 points,  2 beta functions with: 
                l(1) =   0
                l(2) =   0

     atomic species   valence    mass     pseudopotential
        C              4.00     1.00000     C ( 1.00)
        H              1.00     1.00000     H ( 1.00)

     No symmetry found



   Cartesian axes

     site n.     atom                  positions (alat units)
         1           C   tau(   1) = (   0.0000000   0.0878879   0.0000000  )
         2           C   tau(   2) = (   0.0761131   0.0439439   0.0000000  )
         3           C   tau(   3) = (   0.0761131  -0.0439439   0.0000000  )
         4           C   tau(   4) = (   0.0000000  -0.0878879   0.0000000  )
         5           C   tau(   5) = (  -0.0761131  -0.0439439   0.0000000  )
         6           C   tau(   6) = (  -0.0761131   0.0439439   0.0000000  )
         7           H   tau(   7) = (   0.0000000   0.1563660   0.0000000  )
         8           H   tau(   8) = (   0.1354170   0.0781830   0.0000000  )
         9           H   tau(   9) = (   0.1354170  -0.0781830   0.0000000  )
        10           H   tau(  10) = (   0.0000000  -0.1563660   0.0000000  )
        11           H   tau(  11) = (  -0.1354170  -0.0781830   0.0000000  )
        12           H   tau(  12) = (  -0.1354170   0.0781830   0.0000000  )

     number of k points=     1
                       cart. coord. in units 2pi/alat
        k(    1) = (   0.0000000   0.0000000   0.0000000), wk =   2.0000000

     Dense  grid:  1429317 G-vectors     FFT dimensions: ( 180, 180, 180)

     Estimated max dynamical RAM per process >      64.34MB

     Estimated total allocated dynamical RAM >    2573.64MB

     Initial potential from superposition of free atoms
     Check: negative starting charge=   -0.000484

     starting charge   29.94540, renormalised to   30.00000

     negative rho (up, down):  4.850E-04 0.000E+00
     Starting wfc are random

     total cpu time spent up to now is        2.7 secs

     per-process dynamical memory:    71.6 Mb

     Self-consistent Calculation

     iteration #  1     ecut=    85.00 Ry     beta=0.40
     Davidson diagonalization with overlap
     ethr =  1.00E-02,  avg # of iterations = 12.0

     negative rho (up, down):  2.113E-04 0.000E+00

     total cpu time spent up to now is       11.8 secs

     total energy              =     -75.35056419 Ry
     Harris-Foulkes estimate   =     -76.01738055 Ry
     estimated scf accuracy    <       1.45153584 Ry

     iteration #  2     ecut=    85.00 Ry     beta=0.40
     Davidson diagonalization with overlap
     ethr =  4.84E-03,  avg # of iterations =  2.0

     negative rho (up, down):  4.686E-05 0.000E+00

     total cpu time spent up to now is       14.0 secs

     total energy              =     -75.44356101 Ry
     Harris-Foulkes estimate   =     -75.50774224 Ry
     estimated scf accuracy    <       0.16152625 Ry

     iteration #  3     ecut=    85.00 Ry     beta=0.40
     Davidson diagonalization with overlap
     ethr =  5.38E-04,  avg # of iterations =  9.0

     negative rho (up, down):  4.860E-06 0.000E+00

     total cpu time spent up to now is       17.1 secs

     total energy              =     -75.44567262 Ry
     Harris-Foulkes estimate   =     -75.45470626 Ry
     estimated scf accuracy    <       0.02348817 Ry

     iteration #  4     ecut=    85.00 Ry     beta=0.40
     Davidson diagonalization with overlap
     ethr =  7.83E-05,  avg # of iterations =  6.0

     negative rho (up, down):  3.391E-07 0.000E+00

     total cpu time spent up to now is       20.0 secs

     total energy              =     -75.44731283 Ry
     Harris-Foulkes estimate   =     -75.44754917 Ry
     estimated scf accuracy    <       0.00089942 Ry

     iteration #  5     ecut=    85.00 Ry     beta=0.40
     Davidson diagonalization with overlap
     ethr =  3.00E-06,  avg # of iterations =  5.0

     negative rho (up, down):  2.710E-08 0.000E+00

     total cpu time spent up to now is       23.2 secs

     total energy              =     -75.44742301 Ry
     Harris-Foulkes estimate   =     -75.44743337 Ry
     estimated scf accuracy    <       0.00005443 Ry

     iteration #  6     ecut=    85.00 Ry     beta=0.40
     Davidson diagonalization with overlap
     ethr =  1.81E-07,  avg # of iterations =  2.0

     total cpu time spent up to now is       25.6 secs

     total energy              =     -75.44742919 Ry
     Harris-Foulkes estimate   =     -75.44743188 Ry
     estimated scf accuracy    <       0.00000806 Ry

     iteration #  7     ecut=    85.00 Ry     beta=0.40
     Davidson diagonalization with overlap
     ethr =  2.69E-08,  avg # of iterations =  2.0

     total cpu time spent up to now is       27.8 secs

     End of self-consistent calculation

          k = 0.0000 0.0000 0.0000 (178607 PWs)   bands (ev):

   -21.0289 -18.2468 -18.2466 -14.6468 -14.6468 -12.7305 -11.0188 -10.7395
   -10.0589 -10.0588  -8.9012  -8.0680  -8.0680  -6.1693  -6.1692  -1.0581
    -1.0581  -0.3933   0.2057   0.2059   0.3928   0.4691   0.5039   0.6200
     0.8033   0.9786   0.9824   1.0958   1.0963   1.1008   1.1258   1.1278
     1.1912   1.2390   1.2558   1.2700   1.6098   1.6505   1.7331   1.7467
     1.7467   1.7532   1.7895   1.8222   1.8524   1.8970   2.1062   2.1483
     2.2166   2.4514   2.5498   2.5873   2.5914   2.5977   2.6629   2.7227
     2.7259   2.7494   2.7711   2.7818   2.8435   2.8468   2.9020   2.9544
     2.9549   2.9792   3.0070   3.0274   3.0368   3.0588   3.0849   3.0879
     3.0920   3.1153   3.1816   3.3100   3.3448   3.3985   3.4131   3.4174
     3.4615   3.4958   3.5169   3.5171   3.5235   3.5383   3.5657   3.6155
     3.6168   3.6293   3.6303   3.6370   3.6401   3.6402   3.6557   3.6588
     3.6594   3.6632   3.8660   4.1651

     highest occupied, lowest unoccupied level (ev):    -6.1692   -1.0581

!    total energy              =     -75.44743042 Ry
     Harris-Foulkes estimate   =     -75.44743043 Ry
     estimated scf accuracy    <       0.00000011 Ry

     The total energy is the sum of the following terms:

     one-electron contribution =    -351.88847251 Ry
     hartree contribution      =     179.12522131 Ry
     xc contribution           =     -25.14671728 Ry
     ewald contribution        =     122.46253805 Ry

     charge density inside the Wigner-Seitz cell:   30.00000000

     reference position (x0):         0.00000000   -0.00000000    0.00000000 bohr

     Dipole moments (with respect to x0):
     Elect  -0.0001   0.0002  -0.0000 au (Ha),  -0.0004   0.0006  -0.0000 Debye
     Ionic   0.0000   0.0000   0.0000 au (Ha),   0.0000   0.0000   0.0000 Debye
     Total  -0.0001   0.0002  -0.0000 au (Ha),  -0.0004   0.0006  -0.0000 Debye

     Electrons quadrupole moment       -375.16744200 a.u. (Ha)
          Ions quadrupole moment        298.87623588 a.u. (Ha)
         Total quadrupole moment        -76.29120612 a.u. (Ha)

     *********    MAKOV-PAYNE CORRECTION    *********

     Makov-Payne correction with Madelung constant =   2.8373

     Makov-Payne correction     0.00000000 Ry =  0.000 eV (1st order, 1/a0)
                                0.00000000 Ry =  0.000 eV (2nd order, 1/a0^3)
                                0.00000000 Ry =  0.000 eV (total)

!    Total+Makov-Payne energy  =     -75.44743042 Ry
     Corrected vacuum level    =       0.16049925 eV

     convergence has been achieved in   7 iterations

     Writing output data file ./c6h6.save
 
     init_run     :      1.84s CPU      2.11s WALL (       1 calls)
     electrons    :     23.84s CPU     25.45s WALL (       1 calls)

     Called by init_run:
     wfcinit      :      0.70s CPU      0.72s WALL (       1 calls)
     potinit      :      0.32s CPU      0.48s WALL (       1 calls)

     Called by electrons:
     c_bands      :     19.52s CPU     19.86s WALL (       7 calls)
     sum_band     :      2.59s CPU      2.74s WALL (       7 calls)
     v_of_rho     :      1.45s CPU      2.49s WALL (       8 calls)
     mix_rho      :      0.17s CPU      0.24s WALL (       7 calls)

     Called by c_bands:
     init_us_2    :      0.03s CPU      0.04s WALL (      15 calls)
     regterg      :     19.43s CPU     19.76s WALL (       7 calls)

     Called by sum_band:

     Called by *egterg:
     h_psi        :     15.20s CPU     15.28s WALL (      46 calls)
     g_psi        :      0.05s CPU      0.06s WALL (      38 calls)
     rdiaghg      :      1.19s CPU      1.22s WALL (      45 calls)

     Called by h_psi:
     h_psi:pot    :     15.01s CPU     15.09s WALL (      46 calls)
     h_psi:calbec :      0.25s CPU      0.24s WALL (      46 calls)
     vloc_psi     :     14.59s CPU     14.66s WALL (      46 calls)
     add_vuspsi   :      0.18s CPU      0.19s WALL (      46 calls)

     General routines
     calbec       :      0.25s CPU      0.24s WALL (      46 calls)
     fft          :      1.35s CPU      2.35s WALL (      87 calls)
     fftw         :     13.86s CPU     13.76s WALL (    2900 calls)
 
     Parallel routines
     fft_scatter  :      8.79s CPU      8.87s WALL (    2987 calls)
 
     PWSCF        :    27.76s CPU        32.25s WALL

 
   This run was terminated on:   9:38:38  27Apr2018            

=------------------------------------------------------------------------------=
   JOB DONE.
=------------------------------------------------------------------------------=
