
     Program PWSCF v.6.1 (svn rev. 13369) starts on 13Sep2017 at 13:58:57 

     This program is part of the open-source Quantum ESPRESSO suite
     for quantum simulation of materials; please cite
         "P. Giannozzi et al., J. Phys.:Condens. Matter 21 395502 (2009);
          URL http://www.quantum-espresso.org", 
     in publications or presentations arising from this work. More details at
     http://www.quantum-espresso.org/quote

     Parallel version (MPI & OpenMP), running on      80 processor cores
     Number of MPI processes:                80
     Threads/MPI process:                     1
     R & G space division:  proc/nbgrp/npool/nimage =      80
     Waiting for input...
     Reading input from standard input

     Current dimensions of program PWSCF are:
     Max number of different atomic species (ntypx) = 10
     Max number of k-points (npk) =  40000
     Max angular momentum in pseudopotentials (lmaxx) =  3

     gamma-point specific algorithms are used

     Subspace diagonalization in iterative solution of the eigenvalue problem:
     one sub-group per band group will be used
     scalapack distributed-memory algorithm (size of sub-group:  6*  6 procs)

 
     Parallelization info
     --------------------
     sticks:   dense  smooth     PW     G-vecs:    dense   smooth      PW
     Min          57      57     13                 3069     3069     382
     Max          62      62     16                 3092     3092     396
     Sum        4741    4741   1201               246225   246225   31031
 


     bravais-lattice index     =            1
     lattice parameter (alat)  =      15.7802  a.u.
     unit-cell volume          =    3929.4988 (a.u.)^3
     number of atoms/cell      =           56
     number of atomic types    =            2
     number of electrons       =       256.00
     number of Kohn-Sham states=          250
     kinetic-energy cutoff     =      60.0000  Ry
     charge density cutoff     =     240.0000  Ry
     convergence threshold     =      1.0E-06
     mixing beta               =       0.7000
     number of iterations used =            8  plain     mixing
     Exchange-correlation      = PBE ( 1  4  3  4 0 0)

     celldm(1)=  15.780196  celldm(2)=   0.000000  celldm(3)=   0.000000
     celldm(4)=   0.000000  celldm(5)=   0.000000  celldm(6)=   0.000000

     crystal axes: (cart. coord. in units of alat)
               a(1) = (   1.000000   0.000000   0.000000 )  
               a(2) = (   0.000000   1.000000   0.000000 )  
               a(3) = (   0.000000   0.000000   1.000000 )  

     reciprocal axes: (cart. coord. in units 2 pi/alat)
               b(1) = (  1.000000  0.000000  0.000000 )  
               b(2) = (  0.000000  1.000000  0.000000 )  
               b(3) = (  0.000000  0.000000  1.000000 )  


     PseudoPot. # 1 for N  read from file:
     ./N_ONCV_PBE-1.0.upf
     MD5 check sum: e7391ac1e3da9302b4611eea0a09cd4a
     Pseudo is Norm-conserving, Zval =  5.0
     Generated using ONCVPSP code by D. R. Hamann
     Using radial grid of  602 points,  4 beta functions with: 
                l(1) =   0
                l(2) =   0
                l(3) =   1
                l(4) =   1

     PseudoPot. # 2 for Si read from file:
     ./Si_ONCV_PBE-1.1.upf
     MD5 check sum: 893f9c914d8b8e384479fa6fd8b59ac5
     Pseudo is Norm-conserving, Zval =  4.0
     Generated using ONCVPSP code by D. R. Hamann
     Using radial grid of  602 points,  4 beta functions with: 
                l(1) =   0
                l(2) =   0
                l(3) =   1
                l(4) =   1

     atomic species   valence    mass     pseudopotential
        N              5.00    14.00674     N ( 1.00)
        Si             4.00    28.08550     Si( 1.00)

     No symmetry found



   Cartesian axes

     site n.     atom                  positions (alat units)
         1           Si  tau(   1) = (   0.0083678   0.2155631   0.4583559  )
         2           Si  tau(   2) = (  -0.1974509  -0.2641004  -0.1425350  )
         3           Si  tau(   3) = (  -0.4697119  -0.2519211   0.3727282  )
         4           Si  tau(   4) = (  -0.0014367   0.1081495   0.1040055  )
         5           Si  tau(   5) = (  -0.3995090   0.2074460   0.0597566  )
         6           Si  tau(   6) = (   0.0190325  -0.2402568   0.2912088  )
         7           Si  tau(   7) = (  -0.1543015   0.3870124  -0.0989809  )
         8           Si  tau(   8) = (   0.4548682   0.1001614  -0.2728011  )
         9           Si  tau(   9) = (   0.3400037   0.0029382   0.4702720  )
        10           Si  tau(  10) = (   0.2545192   0.2830315   0.2606244  )
        11           Si  tau(  11) = (  -0.3254606   0.1550336   0.4150100  )
        12           Si  tau(  12) = (   0.2555820   0.4006132  -0.3819550  )
        13           Si  tau(  13) = (  -0.1812453   0.4098189   0.2393710  )
        14           Si  tau(  14) = (   0.0362040  -0.4004340  -0.3886111  )
        15           Si  tau(  15) = (  -0.3337581  -0.4739906  -0.3418048  )
        16           Si  tau(  16) = (  -0.1475529  -0.1427919  -0.4423539  )
        17           Si  tau(  17) = (  -0.4540515  -0.3272650   0.0258659  )
        18           Si  tau(  18) = (   0.5068796   0.4667720   0.3654457  )
        19           Si  tau(  19) = (  -0.2064271   0.1219423  -0.2326533  )
        20           Si  tau(  20) = (   0.2697872   0.2475344  -0.0307137  )
        21           Si  tau(  21) = (  -0.2490459  -0.0929761   0.2015074  )
        22           Si  tau(  22) = (   0.3760235  -0.2630589  -0.2338674  )
        23           Si  tau(  23) = (   0.0656751  -0.4371051   0.0810744  )
        24           Si  tau(  24) = (   0.2849284  -0.1191914   0.1162153  )
        25           N   tau(  25) = (  -0.3184908   0.3613481   0.3861245  )
        26           N   tau(  26) = (   0.3887556  -0.1115324   0.3083316  )
        27           N   tau(  27) = (   0.1663262  -0.2780767   0.1570750  )
        28           N   tau(  28) = (  -0.0750960   0.1915655  -0.0800999  )
        29           N   tau(  29) = (  -0.0701377  -0.4223531   0.2444252  )
        30           N   tau(  30) = (  -0.2852291   0.3868636   0.0608110  )
        31           N   tau(  31) = (   0.3528141  -0.0804312  -0.3326152  )
        32           N   tau(  32) = (  -0.1527039   0.1008266  -0.4615570  )
        33           N   tau(  33) = (  -0.4275241  -0.3714557  -0.1805641  )
        34           N   tau(  34) = (   0.0520512   0.3897198  -0.4290784  )
        35           N   tau(  35) = (   0.1939268   0.0610184   0.0465421  )
        36           N   tau(  36) = (   0.3198208   0.2602062  -0.2329706  )
        37           N   tau(  37) = (  -0.4853267  -0.3927571   0.2180450  )
        38           N   tau(  38) = (   0.3250977   0.3981881   0.4159669  )
        39           N   tau(  39) = (  -0.0537510  -0.4265940  -0.0906003  )
        40           N   tau(  40) = (  -0.2557592   0.3490172  -0.2722786  )
        41           N   tau(  41) = (   0.3904282  -0.2044860  -0.0345723  )
        42           N   tau(  42) = (  -0.4916302   0.1214946  -0.4721579  )
        43           N   tau(  43) = (   0.1646904   0.3860003   0.0790681  )
        44           N   tau(  44) = (  -0.4015009   0.1072740  -0.1268557  )
        45           N   tau(  45) = (   0.0430803  -0.2174956   0.4924306  )
        46           N   tau(  46) = (  -0.2848182  -0.2146585   0.0427186  )
        47           N   tau(  47) = (  -0.4717669  -0.3979687  -0.4786992  )
        48           N   tau(  48) = (  -0.3328868   0.0900153   0.2147450  )
        49           N   tau(  49) = (   0.4153340   0.2576918   0.1221332  )
        50           N   tau(  50) = (  -0.1676112  -0.3498238  -0.3558490  )
        51           N   tau(  51) = (  -0.2886649  -0.1598317   0.3967273  )
        52           N   tau(  52) = (   0.1873645   0.1247469   0.4036911  )
        53           N   tau(  53) = (  -0.0422965   0.2533968   0.2603378  )
        54           N   tau(  54) = (  -0.0510981  -0.0647373   0.2031638  )
        55           N   tau(  55) = (  -0.1628875  -0.0859469  -0.2415892  )
        56           N   tau(  56) = (   0.2334371  -0.4057306  -0.3010007  )

     number of k points=     1
                       cart. coord. in units 2pi/alat
        k(    1) = (   0.0000000   0.0000000   0.0000000), wk =   2.0000000

     Dense  grid:   123113 G-vectors     FFT dimensions: (  80,  80,  80)

     Estimated max dynamical RAM per process >       7.33MB

     Estimated total allocated dynamical RAM >     586.55MB

     Initial potential from superposition of free atoms

     starting charge  254.80755, renormalised to  256.00000
     Starting wfc are random

     total cpu time spent up to now is        3.9 secs

     per-process dynamical memory:    27.8 Mb

     Self-consistent Calculation

     iteration #  1     ecut=    60.00 Ry     beta=0.70
     Davidson diagonalization with overlap
     ethr =  1.00E-02,  avg # of iterations =  8.0

     total cpu time spent up to now is        6.8 secs

     total energy              =    -823.35269393 Ry
     Harris-Foulkes estimate   =    -833.19530332 Ry
     estimated scf accuracy    <      14.54560229 Ry

     iteration #  2     ecut=    60.00 Ry     beta=0.70
     Davidson diagonalization with overlap
     ethr =  5.68E-03,  avg # of iterations =  2.0

     total cpu time spent up to now is        7.6 secs

     total energy              =    -827.08642966 Ry
     Harris-Foulkes estimate   =    -831.32099887 Ry
     estimated scf accuracy    <       8.37551792 Ry

     iteration #  3     ecut=    60.00 Ry     beta=0.70
     Davidson diagonalization with overlap
     ethr =  3.27E-03,  avg # of iterations =  2.0

     total cpu time spent up to now is        8.3 secs

     total energy              =    -828.72933174 Ry
     Harris-Foulkes estimate   =    -828.78967301 Ry
     estimated scf accuracy    <       0.13572856 Ry

     iteration #  4     ecut=    60.00 Ry     beta=0.70
     Davidson diagonalization with overlap
     ethr =  5.30E-05,  avg # of iterations =  6.0

     total cpu time spent up to now is       10.0 secs

     total energy              =    -828.77230483 Ry
     Harris-Foulkes estimate   =    -828.82195093 Ry
     estimated scf accuracy    <       0.12240585 Ry

     iteration #  5     ecut=    60.00 Ry     beta=0.70
     Davidson diagonalization with overlap
     ethr =  4.78E-05,  avg # of iterations =  3.0

     total cpu time spent up to now is       10.8 secs

     total energy              =    -828.79330691 Ry
     Harris-Foulkes estimate   =    -828.79565168 Ry
     estimated scf accuracy    <       0.00442764 Ry

     iteration #  6     ecut=    60.00 Ry     beta=0.70
     Davidson diagonalization with overlap
     ethr =  1.73E-06,  avg # of iterations =  8.0

     total cpu time spent up to now is       12.7 secs

     total energy              =    -828.79449397 Ry
     Harris-Foulkes estimate   =    -828.79503419 Ry
     estimated scf accuracy    <       0.00116380 Ry

     iteration #  7     ecut=    60.00 Ry     beta=0.70
     Davidson diagonalization with overlap
     ethr =  4.55E-07,  avg # of iterations =  2.0

     total cpu time spent up to now is       13.3 secs

     total energy              =    -828.79474492 Ry
     Harris-Foulkes estimate   =    -828.79479326 Ry
     estimated scf accuracy    <       0.00011343 Ry

     iteration #  8     ecut=    60.00 Ry     beta=0.70
     Davidson diagonalization with overlap
     ethr =  4.43E-08,  avg # of iterations =  2.0

     total cpu time spent up to now is       14.1 secs

     total energy              =    -828.79477409 Ry
     Harris-Foulkes estimate   =    -828.79477906 Ry
     estimated scf accuracy    <       0.00001437 Ry

     iteration #  9     ecut=    60.00 Ry     beta=0.70
     Davidson diagonalization with overlap
     ethr =  5.61E-09,  avg # of iterations =  2.0

     total cpu time spent up to now is       14.8 secs

     total energy              =    -828.79477750 Ry
     Harris-Foulkes estimate   =    -828.79477897 Ry
     estimated scf accuracy    <       0.00000365 Ry

     iteration # 10     ecut=    60.00 Ry     beta=0.70
     Davidson diagonalization with overlap
     ethr =  1.43E-09,  avg # of iterations =  2.0

     total cpu time spent up to now is       15.4 secs

     End of self-consistent calculation

          k = 0.0000 0.0000 0.0000 ( 15516 PWs)   bands (ev):

   -10.1729  -9.2903  -9.0598  -8.8654  -8.8382  -8.7141  -8.6346  -8.3176
    -8.1515  -7.9341  -7.8583  -7.6450  -7.5274  -7.4348  -7.3154  -7.1868
    -7.0778  -6.9961  -6.7197  -6.6142  -6.5347  -6.4813  -6.3748  -6.3109
    -6.1902  -6.0892  -5.9857  -5.8814  -5.7775  -5.6941  -5.6171  -5.3924
    -1.1656  -0.9683  -0.8176  -0.6371  -0.5926  -0.4071  -0.3124  -0.2141
    -0.1009  -0.0364   0.0111   0.2506   0.3470   0.4881   0.6174   0.7296
     0.8504   1.2124   1.3289   1.4564   1.5073   1.5651   1.7423   1.9027
     1.9659   2.1718   2.2666   2.3624   2.5089   2.5212   2.5409   2.6592
     2.8232   2.9708   3.0700   3.1012   3.2108   3.2523   3.3156   3.3388
     3.4593   3.5481   3.7031   3.7692   3.8867   3.9006   3.9796   4.0683
     4.2068   4.2997   4.4345   4.4623   4.5721   4.6360   4.7161   4.7967
     4.8257   4.8665   4.9985   5.0350   5.1410   5.2480   5.2977   5.3068
     5.5130   5.5239   5.6110   5.7474   5.8011   5.8369   5.9068   6.0622
     6.1694   6.2708   6.3184   6.4272   6.5339   6.6601   6.7023   6.7536
     6.8214   6.9007   7.0529   7.0620   7.1928   7.2175   7.3537   7.4363
     7.5200   7.6428   7.7310   7.7845   7.8304   7.9422   8.1824   8.2978
    11.4889  11.8373  12.1934  12.2698  12.6142  12.7669  12.7906  12.8108
    13.0296  13.1475  13.2032  13.4058  13.4969  13.6553  13.7224  13.7807
    13.7868  13.8466  13.9880  14.1214  14.2313  14.2663  14.3743  14.6729
    14.7386  14.7773  14.8595  14.8776  15.0073  15.1261  15.1795  15.2786
    15.4897  15.5379  15.5960  15.6422  15.7102  15.7534  15.9183  15.9731
    16.0570  16.1363  16.3379  16.4211  16.4395  16.5323  16.6734  16.7133
    16.8290  16.8685  17.0249  17.0727  17.1231  17.2434  17.2653  17.3169
    17.4022  17.4911  17.5358  17.6307  17.7053  17.8371  17.9093  17.9601
    18.0342  18.1152  18.2009  18.2654  18.3238  18.4573  18.4999  18.6326
    18.7150  18.7237  18.9065  18.9564  18.9711  19.0577  19.1365  19.1548
    19.3051  19.3797  19.5468  19.6694  19.7310  19.8452  19.9628  20.0161
    20.0682  20.1815  20.2490  20.3225  20.4639  20.4886  20.6731  20.7232
    20.7893  20.9506  20.9854  21.0335  21.1373  21.1920  21.3127  21.3472
    21.4875  21.5483  21.5613  21.6472  21.8250  21.8762  21.9600  22.1385
    22.2048  22.2374  22.2996  22.3648  22.4970  22.6179  22.6498  22.7693
    22.9001  23.0647

     highest occupied, lowest unoccupied level (ev):     8.2978   11.4889

!    total energy              =    -828.79477827 Ry
     Harris-Foulkes estimate   =    -828.79477840 Ry
     estimated scf accuracy    <       0.00000022 Ry

     The total energy is the sum of the following terms:

     one-electron contribution =    -120.71141819 Ry
     hartree contribution      =     219.69265314 Ry
     xc contribution           =    -228.43045960 Ry
     ewald contribution        =    -699.34555363 Ry

     convergence has been achieved in  10 iterations

     Writing output data file si.save
 
     init_run     :      1.37s CPU      1.76s WALL (       1 calls)
     electrons    :     11.30s CPU     11.66s WALL (       1 calls)

     Called by init_run:
     wfcinit      :      0.37s CPU      0.50s WALL (       1 calls)
     potinit      :      0.07s CPU      0.12s WALL (       1 calls)

     Called by electrons:
     c_bands      :     10.41s CPU     10.53s WALL (      10 calls)
     sum_band     :      0.67s CPU      0.69s WALL (      10 calls)
     v_of_rho     :      0.16s CPU      0.25s WALL (      11 calls)
     mix_rho      :      0.04s CPU      0.06s WALL (      10 calls)

     Called by c_bands:
     init_us_2    :      0.00s CPU      0.02s WALL (      21 calls)
     regterg      :     10.34s CPU     10.46s WALL (      10 calls)

     Called by sum_band:

     Called by *egterg:
     h_psi        :      4.11s CPU      4.17s WALL (      48 calls)
     g_psi        :      0.00s CPU      0.01s WALL (      37 calls)
     rdiaghg      :      5.47s CPU      5.64s WALL (      47 calls)

     Called by h_psi:
     h_psi:pot    :      4.11s CPU      4.16s WALL (      48 calls)
     h_psi:calbec :      0.22s CPU      0.24s WALL (      48 calls)
     vloc_psi     :      3.74s CPU      3.76s WALL (      48 calls)
     add_vuspsi   :      0.14s CPU      0.16s WALL (      48 calls)

     General routines
     calbec       :      0.22s CPU      0.24s WALL (      48 calls)
     fft          :      0.51s CPU      0.74s WALL (     120 calls)
     fftw         :      4.39s CPU      4.33s WALL (    8598 calls)
 
     Parallel routines
     fft_scatter  :      4.83s CPU      4.37s WALL (    8718 calls)
 
     PWSCF        :    14.45s CPU        16.68s WALL

 
   This run was terminated on:  13:59:14  13Sep2017            

=------------------------------------------------------------------------------=
   JOB DONE.
=------------------------------------------------------------------------------=
