
     Program PWSCF v.6.1 (svn rev. 13369) starts on 18Apr2018 at 21:12:26 

     This program is part of the open-source Quantum ESPRESSO suite
     for quantum simulation of materials; please cite
         "P. Giannozzi et al., J. Phys.:Condens. Matter 21 395502 (2009);
          URL http://www.quantum-espresso.org", 
     in publications or presentations arising from this work. More details at
     http://www.quantum-espresso.org/quote

     Parallel version (MPI & OpenMP), running on      80 processor cores
     Number of MPI processes:                80
     Threads/MPI process:                     1
     R & G space division:  proc/nbgrp/npool/nimage =      80
     Waiting for input...
     Reading input from standard input

     Current dimensions of program PWSCF are:
     Max number of different atomic species (ntypx) = 10
     Max number of k-points (npk) =  40000
     Max angular momentum in pseudopotentials (lmaxx) =  3

     gamma-point specific algorithms are used

     Subspace diagonalization in iterative solution of the eigenvalue problem:
     one sub-group per band group will be used
     scalapack distributed-memory algorithm (size of sub-group:  6*  6 procs)

 
     Parallelization info
     --------------------
     sticks:   dense  smooth     PW     G-vecs:    dense   smooth      PW
     Min         303     303     75                35728    35728    4455
     Max         306     306     80                35736    35736    4472
     Sum       24345   24345   6093              2858633  2858633  357213
 


     bravais-lattice index     =            1
     lattice parameter (alat)  =      30.0000  a.u.
     unit-cell volume          =   27000.0000 (a.u.)^3
     number of atoms/cell      =            4
     number of atomic types    =            2
     number of electrons       =         8.00
     number of Kohn-Sham states=          100
     kinetic-energy cutoff     =      85.0000  Ry
     charge density cutoff     =     340.0000  Ry
     convergence threshold     =      1.0E-06
     mixing beta               =       0.4000
     number of iterations used =            8  plain     mixing
     Exchange-correlation      = PBE ( 1  4  3  4 0 0)

     celldm(1)=  30.000000  celldm(2)=   0.000000  celldm(3)=   0.000000
     celldm(4)=   0.000000  celldm(5)=   0.000000  celldm(6)=   0.000000

     crystal axes: (cart. coord. in units of alat)
               a(1) = (   1.000000   0.000000   0.000000 )  
               a(2) = (   0.000000   1.000000   0.000000 )  
               a(3) = (   0.000000   0.000000   1.000000 )  

     reciprocal axes: (cart. coord. in units 2 pi/alat)
               b(1) = (  1.000000  0.000000  0.000000 )  
               b(2) = (  0.000000  1.000000  0.000000 )  
               b(3) = (  0.000000  0.000000  1.000000 )  


     PseudoPot. # 1 for N  read from file:
     ~/PseudoPotential/upf/N_ONCV_PBE-1.0.upf
     MD5 check sum: Not computed, couldn't open file
     Pseudo is Norm-conserving, Zval =  5.0
     Generated using ONCVPSP code by D. R. Hamann
     Using radial grid of  602 points,  4 beta functions with: 
                l(1) =   0
                l(2) =   0
                l(3) =   1
                l(4) =   1

     PseudoPot. # 2 for H  read from file:
     ~/PseudoPotential/upf/H_ONCV_PBE-1.0.upf
     MD5 check sum: Not computed, couldn't open file
     Pseudo is Norm-conserving, Zval =  1.0
     Generated using ONCVPSP code by D. R. Hamann
     Using radial grid of  602 points,  2 beta functions with: 
                l(1) =   0
                l(2) =   0

     atomic species   valence    mass     pseudopotential
        N              5.00     1.00000     N ( 1.00)
        H              1.00     1.00000     H ( 1.00)

     No symmetry found



   Cartesian axes

     site n.     atom                  positions (alat units)
         1           N   tau(   1) = (   0.0000000   0.0000000   0.0073377  )
         2           H   tau(   2) = (   0.0000000   0.0591945  -0.0171214  )
         3           H   tau(   3) = (   0.0512639  -0.0295972  -0.0171214  )
         4           H   tau(   4) = (  -0.0512639  -0.0295972  -0.0171214  )

     number of k points=     1
                       cart. coord. in units 2pi/alat
        k(    1) = (   0.0000000   0.0000000   0.0000000), wk =   2.0000000

     Dense  grid:  1429317 G-vectors     FFT dimensions: ( 180, 180, 180)

     Estimated max dynamical RAM per process >      49.07MB

     Estimated total allocated dynamical RAM >    3925.74MB

     Initial potential from superposition of free atoms
     Check: negative starting charge=   -0.000245

     starting charge    7.99101, renormalised to    8.00000

     negative rho (up, down):  2.455E-04 0.000E+00
     Starting wfc are random

     total cpu time spent up to now is        2.7 secs

     per-process dynamical memory:    66.9 Mb

     Self-consistent Calculation

     iteration #  1     ecut=    85.00 Ry     beta=0.40
     Davidson diagonalization with overlap
     ethr =  1.00E-02,  avg # of iterations = 13.0

     negative rho (up, down):  1.255E-04 0.000E+00

     total cpu time spent up to now is        9.5 secs

     total energy              =     -23.36734515 Ry
     Harris-Foulkes estimate   =     -23.70103813 Ry
     estimated scf accuracy    <       0.66184583 Ry

     iteration #  2     ecut=    85.00 Ry     beta=0.40
     Davidson diagonalization with overlap
     ethr =  8.27E-03,  avg # of iterations =  1.0

     negative rho (up, down):  3.895E-05 0.000E+00

     total cpu time spent up to now is       11.0 secs

     total energy              =     -23.48231578 Ry
     Harris-Foulkes estimate   =     -23.49083459 Ry
     estimated scf accuracy    <       0.03650375 Ry

     iteration #  3     ecut=    85.00 Ry     beta=0.40
     Davidson diagonalization with overlap
     ethr =  4.56E-04,  avg # of iterations =  1.0

     negative rho (up, down):  3.471E-08 0.000E+00

     total cpu time spent up to now is       12.5 secs

     total energy              =     -23.47896866 Ry
     Harris-Foulkes estimate   =     -23.48369760 Ry
     estimated scf accuracy    <       0.01265499 Ry

     iteration #  4     ecut=    85.00 Ry     beta=0.40
     Davidson diagonalization with overlap
     ethr =  1.58E-04,  avg # of iterations =  5.0

     negative rho (up, down):  1.467E-06 0.000E+00

     total cpu time spent up to now is       14.3 secs

     total energy              =     -23.47969377 Ry
     Harris-Foulkes estimate   =     -23.47983033 Ry
     estimated scf accuracy    <       0.00027437 Ry

     iteration #  5     ecut=    85.00 Ry     beta=0.40
     Davidson diagonalization with overlap
     ethr =  3.43E-06,  avg # of iterations = 11.0

     negative rho (up, down):  1.278E-07 0.000E+00

     total cpu time spent up to now is       17.3 secs

     total energy              =     -23.47973660 Ry
     Harris-Foulkes estimate   =     -23.47973533 Ry
     estimated scf accuracy    <       0.00001677 Ry

     iteration #  6     ecut=    85.00 Ry     beta=0.40
     Davidson diagonalization with overlap
     ethr =  2.10E-07,  avg # of iterations =  2.0

     total cpu time spent up to now is       18.8 secs

     total energy              =     -23.47973746 Ry
     Harris-Foulkes estimate   =     -23.47973822 Ry
     estimated scf accuracy    <       0.00000233 Ry

     iteration #  7     ecut=    85.00 Ry     beta=0.40
     Davidson diagonalization with overlap
     ethr =  2.91E-08,  avg # of iterations =  2.0

     total cpu time spent up to now is       20.3 secs

     End of self-consistent calculation

          k = 0.0000 0.0000 0.0000 (178607 PWs)   bands (ev):

   -21.1467 -11.2469 -11.2468  -6.1495  -0.7223   0.1453   0.4051   0.4057
     0.5013   0.5899   0.6049   0.8890   0.9174   0.9203   1.0254   1.1125
     1.1351   1.1355   1.1751   1.1911   1.2058   1.2099   1.2101   1.6236
     1.6315   1.6537   1.7012   1.7112   1.7192   1.7195   1.7743   2.0313
     2.1660   2.1796   2.2144   2.2369   2.3238   2.4848   2.5719   2.6674
     2.6840   2.6991   2.7011   2.7698   2.7702   2.8816   2.9081   2.9114
     2.9124   2.9458   2.9465   2.9561   2.9821   2.9846   2.9846   2.9891
     2.9959   3.0063   3.0097   3.0097   3.0160   3.2402   3.3010   3.3405
     3.4010   3.4068   3.4201   3.4400   3.4533   3.4557   3.5404   3.5539
     3.5541   3.5550   3.5597   3.5600   3.5655   3.5758   3.5760   3.5783
     3.5800   3.5802   3.5829   3.5904   3.5933   4.1251   4.1514   4.4926
     4.5058   4.5105   4.6539   4.6545   4.6613   4.6754   4.6761   4.6805
     4.7546   4.8421   4.9130   4.9575

     highest occupied, lowest unoccupied level (ev):    -6.1495   -0.7223

!    total energy              =     -23.47973764 Ry
     Harris-Foulkes estimate   =     -23.47973813 Ry
     estimated scf accuracy    <       0.00000059 Ry

     The total energy is the sum of the following terms:

     one-electron contribution =     -57.60086565 Ry
     hartree contribution      =      29.82988718 Ry
     xc contribution           =      -7.23268431 Ry
     ewald contribution        =      11.52392514 Ry

     charge density inside the Wigner-Seitz cell:    8.00000000

     reference position (x0):         0.00000000    0.00000024   -0.05503331 bohr

     Dipole moments (with respect to x0):
     Elect  -0.0000   0.0000  -0.5972 au (Ha),  -0.0000   0.0001  -1.5179 Debye
     Ionic   0.0000   0.0000  -0.0000 au (Ha),   0.0000   0.0000  -0.0000 Debye
     Total  -0.0000   0.0000  -0.5972 au (Ha),  -0.0000   0.0001  -1.5179 Debye

     Electrons quadrupole moment        -27.09924874 a.u. (Ha)
          Ions quadrupole moment         10.47030746 a.u. (Ha)
         Total quadrupole moment        -16.62894128 a.u. (Ha)

     *********    MAKOV-PAYNE CORRECTION    *********

     Makov-Payne correction with Madelung constant =   2.8373

     Makov-Payne correction     0.00000000 Ry =  0.000 eV (1st order, 1/a0)
                                0.00005533 Ry =  0.001 eV (2nd order, 1/a0^3)
                                0.00005533 Ry =  0.001 eV (total)

!    Total+Makov-Payne energy  =     -23.47968231 Ry
     Corrected vacuum level    =       0.03507501 eV

     convergence has been achieved in   7 iterations

     Writing output data file ./nh3.save
 
     init_run     :      1.50s CPU      1.75s WALL (       1 calls)
     electrons    :     17.78s CPU     18.15s WALL (       1 calls)

     Called by init_run:
     wfcinit      :      0.56s CPU      0.61s WALL (       1 calls)
     potinit      :      0.17s CPU      0.24s WALL (       1 calls)

     Called by electrons:
     c_bands      :     14.90s CPU     14.98s WALL (       7 calls)
     sum_band     :      1.82s CPU      1.83s WALL (       7 calls)
     v_of_rho     :      0.78s CPU      0.84s WALL (       8 calls)
     mix_rho      :      0.11s CPU      0.11s WALL (       7 calls)

     Called by c_bands:
     init_us_2    :      0.00s CPU      0.01s WALL (      15 calls)
     regterg      :     14.88s CPU     14.96s WALL (       7 calls)

     Called by sum_band:

     Called by *egterg:
     h_psi        :     11.35s CPU     11.40s WALL (      43 calls)
     g_psi        :      0.03s CPU      0.03s WALL (      35 calls)
     rdiaghg      :      1.70s CPU      1.75s WALL (      42 calls)

     Called by h_psi:
     h_psi:pot    :     11.26s CPU     11.31s WALL (      43 calls)
     h_psi:calbec :      0.08s CPU      0.08s WALL (      43 calls)
     vloc_psi     :     11.16s CPU     11.19s WALL (      43 calls)
     add_vuspsi   :      0.02s CPU      0.04s WALL (      43 calls)

     General routines
     calbec       :      0.08s CPU      0.08s WALL (      43 calls)
     fft          :      0.83s CPU      0.96s WALL (      87 calls)
     fftw         :     12.13s CPU     12.00s WALL (    2806 calls)
 
     Parallel routines
     fft_scatter  :      9.85s CPU      9.51s WALL (    2893 calls)
 
     PWSCF        :    21.54s CPU        26.42s WALL

 
   This run was terminated on:  21:12:53  18Apr2018            

=------------------------------------------------------------------------------=
   JOB DONE.
=------------------------------------------------------------------------------=
