
     Program POST-PROC v.6.1 (svn rev. 13369) starts on 11Sep2017 at 16:54:57 

     This program is part of the open-source Quantum ESPRESSO suite
     for quantum simulation of materials; please cite
         "P. Giannozzi et al., J. Phys.:Condens. Matter 21 395502 (2009);
          URL http://www.quantum-espresso.org", 
     in publications or presentations arising from this work. More details at
     http://www.quantum-espresso.org/quote

     Parallel version (MPI & OpenMP), running on      80 processor cores
     Number of MPI processes:                80
     Threads/MPI process:                     1
     R & G space division:  proc/nbgrp/npool/nimage =      80

   Info: using nr1, nr2, nr3 values from input

   Info: using nr1, nr2, nr3 values from input

     IMPORTANT: XC functional enforced from input :
     Exchange-correlation      = PBE ( 1  4  3  4 0 0)
     Any further DFT definition will be discarded
     Please, verify this is what you really want

 
     Parallelization info
     --------------------
     sticks:   dense  smooth     PW     G-vecs:    dense   smooth      PW
     Min          65      65     16                 3690     3690     460
     Max          68      68     18                 3704     3704     474
     Sum        5377    5377   1353               295907   295907   37073
 

     Calling punch_plot, plot_num =  11
     Writing data to file  out.oncv
     Reading data from file  out.oncv

     Writing data to be plotted to file plot.oncv
     Interpolation by B-splines
       1% done...
       2% done...
       3% done...
       4% done...
       5% done...
       6% done...
       7% done...
       8% done...
       9% done...
      10% done...
      11% done...
      12% done...
      13% done...
      14% done...
      15% done...
      16% done...
      17% done...
      18% done...
      19% done...
      20% done...
      21% done...
      22% done...
      23% done...
      24% done...
      25% done...
      26% done...
      27% done...
      28% done...
      29% done...
      30% done...
      31% done...
      32% done...
      33% done...
      34% done...
      35% done...
      36% done...
      37% done...
      38% done...
      39% done...
      40% done...
      41% done...
      42% done...
      43% done...
      44% done...
      45% done...
      46% done...
      47% done...
      48% done...
      49% done...
      50% done...
      51% done...
      52% done...
      53% done...
      54% done...
      55% done...
      56% done...
      57% done...
      58% done...
      59% done...
      60% done...
      61% done...
      62% done...
      63% done...
      64% done...
      65% done...
      66% done...
      67% done...
      68% done...
      69% done...
      70% done...
      71% done...
      72% done...
      73% done...
      74% done...
      75% done...
      76% done...
      77% done...
      78% done...
      79% done...
      80% done...
      81% done...
      82% done...
      83% done...
      84% done...
      85% done...
      86% done...
      87% done...
      88% done...
      89% done...
      90% done...
      91% done...
      92% done...
      93% done...
      94% done...
      95% done...
      96% done...
      97% done...
      98% done...
      99% done...
     100% done...
     Min, Max charge:    -0.167133    0.705356
     Plot Type: 1D along a line        Output format: gnuplot      
 
     POST-PROC    :     6.37s CPU         8.69s WALL

 
   This run was terminated on:  16:55: 6  11Sep2017            

=------------------------------------------------------------------------------=
   JOB DONE.
=------------------------------------------------------------------------------=
