
     Program PWSCF v.6.1 (svn rev. 13369) starts on 12Oct2019 at 12: 0: 2 

     This program is part of the open-source Quantum ESPRESSO suite
     for quantum simulation of materials; please cite
         "P. Giannozzi et al., J. Phys.:Condens. Matter 21 395502 (2009);
          URL http://www.quantum-espresso.org", 
     in publications or presentations arising from this work. More details at
     http://www.quantum-espresso.org/quote

     Parallel version (MPI), running on    40 processors
     R & G space division:  proc/nbgrp/npool/nimage =      40
     Waiting for input...
     Reading input from standard input

     Current dimensions of program PWSCF are:
     Max number of different atomic species (ntypx) = 10
     Max number of k-points (npk) =  40000
     Max angular momentum in pseudopotentials (lmaxx) =  3

     gamma-point specific algorithms are used

     Subspace diagonalization in iterative solution of the eigenvalue problem:
     one sub-group per band group will be used
     scalapack distributed-memory algorithm (size of sub-group:  4*  4 procs)

 
     Parallelization info
     --------------------
     sticks:   dense  smooth     PW     G-vecs:    dense   smooth      PW
     Min         608     608    151                71460    71460    8926
     Max         610     610    158                71470    71470    8932
     Sum       24345   24345   6093              2858633  2858633  357213
 


     bravais-lattice index     =            1
     lattice parameter (alat)  =      30.0000  a.u.
     unit-cell volume          =   27000.0000 (a.u.)^3
     number of atoms/cell      =            3
     number of atomic types    =            3
     number of electrons       =        10.00
     number of Kohn-Sham states=          100
     kinetic-energy cutoff     =      85.0000  Ry
     charge density cutoff     =     340.0000  Ry
     convergence threshold     =      1.0E-06
     mixing beta               =       0.4000
     number of iterations used =            8  plain     mixing
     Exchange-correlation      = PBE ( 1  4  3  4 0 0)

     celldm(1)=  30.000000  celldm(2)=   0.000000  celldm(3)=   0.000000
     celldm(4)=   0.000000  celldm(5)=   0.000000  celldm(6)=   0.000000

     crystal axes: (cart. coord. in units of alat)
               a(1) = (   1.000000   0.000000   0.000000 )  
               a(2) = (   0.000000   1.000000   0.000000 )  
               a(3) = (   0.000000   0.000000   1.000000 )  

     reciprocal axes: (cart. coord. in units 2 pi/alat)
               b(1) = (  1.000000  0.000000  0.000000 )  
               b(2) = (  0.000000  1.000000  0.000000 )  
               b(3) = (  0.000000  0.000000  1.000000 )  


     PseudoPot. # 1 for C  read from file:
     ~/PseudoPotential/upf/C_ONCV_PBE-1.0.upf
     MD5 check sum: Not computed, couldn't open file
     Pseudo is Norm-conserving, Zval =  4.0
     Generated using ONCVPSP code by D. R. Hamann
     Using radial grid of  602 points,  4 beta functions with: 
                l(1) =   0
                l(2) =   0
                l(3) =   1
                l(4) =   1

     PseudoPot. # 2 for N  read from file:
     ~/PseudoPotential/upf/N_ONCV_PBE-1.0.upf
     MD5 check sum: Not computed, couldn't open file
     Pseudo is Norm-conserving, Zval =  5.0
     Generated using ONCVPSP code by D. R. Hamann
     Using radial grid of  602 points,  4 beta functions with: 
                l(1) =   0
                l(2) =   0
                l(3) =   1
                l(4) =   1

     PseudoPot. # 3 for H  read from file:
     ~/PseudoPotential/upf/H_ONCV_PBE-1.0.upf
     MD5 check sum: Not computed, couldn't open file
     Pseudo is Norm-conserving, Zval =  1.0
     Generated using ONCVPSP code by D. R. Hamann
     Using radial grid of  602 points,  2 beta functions with: 
                l(1) =   0
                l(2) =   0

     atomic species   valence    mass     pseudopotential
        C              4.00     1.00000     C ( 1.00)
        N              5.00     1.00000     N ( 1.00)
        H              1.00     1.00000     H ( 1.00)

     No symmetry found



   Cartesian axes

     site n.     atom                  positions (alat units)
         1           C   tau(   1) = (   0.0000000   0.0000000   0.0000000  )
         2           H   tau(   2) = (   0.0000000   0.0000000   0.0671168  )
         3           N   tau(   3) = (   0.0000000   0.0000000  -0.0726411  )

     number of k points=     1
                       cart. coord. in units 2pi/alat
        k(    1) = (   0.0000000   0.0000000   0.0000000), wk =   2.0000000

     Dense  grid:  1429317 G-vectors     FFT dimensions: ( 180, 180, 180)

     Estimated max dynamical RAM per process >      61.99MB

     Estimated total allocated dynamical RAM >    2479.69MB

     Initial potential from superposition of free atoms
     Check: negative starting charge=   -0.000272

     starting charge    9.98831, renormalised to   10.00000

     negative rho (up, down):  2.724E-04 0.000E+00
     Starting wfc are random

     total cpu time spent up to now is        3.2 secs

     per-process dynamical memory:    80.2 Mb

     Self-consistent Calculation

     iteration #  1     ecut=    85.00 Ry     beta=0.40
     Davidson diagonalization with overlap
     ethr =  1.00E-02,  avg # of iterations = 15.0

     negative rho (up, down):  1.099E-04 0.000E+00

     total cpu time spent up to now is       13.7 secs

     total energy              =     -32.33750661 Ry
     Harris-Foulkes estimate   =     -32.55042002 Ry
     estimated scf accuracy    <       0.44085042 Ry

     iteration #  2     ecut=    85.00 Ry     beta=0.40
     Davidson diagonalization with overlap
     ethr =  4.41E-03,  avg # of iterations =  1.0

     negative rho (up, down):  4.905E-05 0.000E+00

     total cpu time spent up to now is       15.9 secs

     total energy              =     -32.36849726 Ry
     Harris-Foulkes estimate   =     -32.41030604 Ry
     estimated scf accuracy    <       0.10072416 Ry

     iteration #  3     ecut=    85.00 Ry     beta=0.40
     Davidson diagonalization with overlap
     ethr =  1.01E-03,  avg # of iterations =  4.0

     negative rho (up, down):  1.658E-05 0.000E+00

     total cpu time spent up to now is       18.3 secs

     total energy              =     -32.37967598 Ry
     Harris-Foulkes estimate   =     -32.39012881 Ry
     estimated scf accuracy    <       0.02878872 Ry

     iteration #  4     ecut=    85.00 Ry     beta=0.40
     Davidson diagonalization with overlap
     ethr =  2.88E-04,  avg # of iterations =  1.0

     negative rho (up, down):  1.517E-06 0.000E+00

     total cpu time spent up to now is       20.5 secs

     total energy              =     -32.38228810 Ry
     Harris-Foulkes estimate   =     -32.38314805 Ry
     estimated scf accuracy    <       0.00232161 Ry

     iteration #  5     ecut=    85.00 Ry     beta=0.40
     Davidson diagonalization with overlap
     ethr =  2.32E-05,  avg # of iterations = 10.0

     negative rho (up, down):  4.797E-07 0.000E+00

     total cpu time spent up to now is       23.5 secs

     total energy              =     -32.38245506 Ry
     Harris-Foulkes estimate   =     -32.38246660 Ry
     estimated scf accuracy    <       0.00004146 Ry

     iteration #  6     ecut=    85.00 Ry     beta=0.40
     Davidson diagonalization with overlap
     ethr =  4.15E-07,  avg # of iterations =  6.0

     negative rho (up, down):  8.145E-08 0.000E+00

     total cpu time spent up to now is       26.5 secs

     total energy              =     -32.38246684 Ry
     Harris-Foulkes estimate   =     -32.38246848 Ry
     estimated scf accuracy    <       0.00000741 Ry

     iteration #  7     ecut=    85.00 Ry     beta=0.40
     Davidson diagonalization with overlap
     ethr =  7.41E-08,  avg # of iterations =  2.0

     total cpu time spent up to now is       28.7 secs

     End of self-consistent calculation

          k = 0.0000 0.0000 0.0000 (178607 PWs)   bands (ev):

   -23.0024 -15.1307  -9.0650  -8.9916  -8.9916  -1.0594  -1.0594  -0.3280
     0.0880   0.3740   0.5209   0.5209   0.6175   0.6278   0.7610   1.0424
     1.0424   1.0459   1.1567   1.1788   1.1788   1.2082   1.2148   1.2329
     1.2363   1.2364   1.4236   1.7269   1.7269   1.7454   1.7643   1.7757
     1.7758   1.8025   1.9098   2.2095   2.2793   2.2794   2.3042   2.3944
     2.4830   2.7405   2.7690   2.7813   2.7814   2.8219   2.8540   2.8540
     2.9256   2.9419   2.9419   2.9431   2.9792   2.9793   3.0054   3.0054
     3.0068   3.0103   3.0163   3.0296   3.0341   3.0342   3.0356   3.0422
     3.2039   3.3736   3.4428   3.4428   3.4677   3.4748   3.4750   3.5188
     3.5307   3.5604   3.5749   3.5772   3.5772   3.5843   3.5844   3.5990
     3.5991   3.6026   3.6050   3.6081   3.6083   3.6190   3.6198   3.6545
     3.9178   4.5355   4.6144   4.6199   4.6199   4.6887   4.7188   4.7189
     4.7290   4.7357   4.7358   4.8195

     highest occupied, lowest unoccupied level (ev):    -8.9916   -1.0594

!    total energy              =     -32.38246726 Ry
     Harris-Foulkes estimate   =     -32.38246750 Ry
     estimated scf accuracy    <       0.00000050 Ry

     The total energy is the sum of the following terms:

     one-electron contribution =     -79.43289342 Ry
     hartree contribution      =      40.75664112 Ry
     xc contribution           =      -8.99331453 Ry
     ewald contribution        =      15.28709955 Ry

     charge density inside the Wigner-Seitz cell:   10.00000000

     reference position (x0):         0.00000000    0.00000000   -0.88826577 bohr

     Dipole moments (with respect to x0):
     Elect   0.0000   0.0000   1.1729 au (Ha),   0.0000   0.0000   2.9812 Debye
     Ionic   0.0000   0.0000   0.0000 au (Ha),   0.0000   0.0000   0.0000 Debye
     Total   0.0000   0.0000   1.1729 au (Ha),   0.0000   0.0000   2.9812 Debye

     Electrons quadrupole moment        -44.62747066 a.u. (Ha)
          Ions quadrupole moment         19.90929875 a.u. (Ha)
         Total quadrupole moment        -24.71817192 a.u. (Ha)

     *********    MAKOV-PAYNE CORRECTION    *********

     Makov-Payne correction with Madelung constant =   2.8373

     Makov-Payne correction     0.00000000 Ry =  0.000 eV (1st order, 1/a0)
                                0.00021343 Ry =  0.003 eV (2nd order, 1/a0^3)
                                0.00021343 Ry =  0.003 eV (total)

!    Total+Makov-Payne energy  =     -32.38225383 Ry
     Corrected vacuum level    =       0.05212168 eV

     convergence has been achieved in   7 iterations

     Writing output data file ./hcn.save
 
     init_run     :      1.72s CPU      2.45s WALL (       1 calls)
     electrons    :     25.19s CPU     26.02s WALL (       1 calls)

     Called by init_run:
     wfcinit      :      0.81s CPU      1.44s WALL (       1 calls)
     potinit      :      0.25s CPU      0.29s WALL (       1 calls)

     Called by electrons:
     c_bands      :     20.91s CPU     21.35s WALL (       7 calls)
     sum_band     :      2.91s CPU      2.97s WALL (       7 calls)
     v_of_rho     :      1.11s CPU      1.15s WALL (       8 calls)
     mix_rho      :      0.16s CPU      0.17s WALL (       7 calls)

     Called by c_bands:
     init_us_2    :      0.01s CPU      0.02s WALL (      15 calls)
     regterg      :     20.88s CPU     21.32s WALL (       7 calls)

     Called by sum_band:

     Called by *egterg:
     h_psi        :     17.73s CPU     17.90s WALL (      47 calls)
     g_psi        :      0.06s CPU      0.06s WALL (      39 calls)
     rdiaghg      :      0.75s CPU      1.28s WALL (      46 calls)

     Called by h_psi:
     h_psi:pot    :     17.53s CPU     17.69s WALL (      47 calls)
     h_psi:calbec :      0.11s CPU      0.20s WALL (      47 calls)
     vloc_psi     :     17.32s CPU     17.38s WALL (      47 calls)
     add_vuspsi   :      0.10s CPU      0.10s WALL (      47 calls)

     General routines
     calbec       :      0.11s CPU      0.20s WALL (      47 calls)
     fft          :      1.00s CPU      1.05s WALL (      87 calls)
     fftw         :     16.16s CPU     16.24s WALL (    2902 calls)
 
     Parallel routines
     fft_scatter  :      5.20s CPU      5.24s WALL (    2989 calls)
 
     PWSCF        :    28.55s CPU        32.38s WALL

 
   This run was terminated on:  12: 0:34  12Oct2019            

=------------------------------------------------------------------------------=
   JOB DONE.
=------------------------------------------------------------------------------=
