
     Program PWSCF v.6.1 (svn rev. 13369) starts on 18Apr2018 at 21: 3:49 

     This program is part of the open-source Quantum ESPRESSO suite
     for quantum simulation of materials; please cite
         "P. Giannozzi et al., J. Phys.:Condens. Matter 21 395502 (2009);
          URL http://www.quantum-espresso.org", 
     in publications or presentations arising from this work. More details at
     http://www.quantum-espresso.org/quote

     Parallel version (MPI & OpenMP), running on      80 processor cores
     Number of MPI processes:                80
     Threads/MPI process:                     1
     R & G space division:  proc/nbgrp/npool/nimage =      80
     Waiting for input...
     Reading input from standard input

     Current dimensions of program PWSCF are:
     Max number of different atomic species (ntypx) = 10
     Max number of k-points (npk) =  40000
     Max angular momentum in pseudopotentials (lmaxx) =  3

     gamma-point specific algorithms are used

     Subspace diagonalization in iterative solution of the eigenvalue problem:
     one sub-group per band group will be used
     scalapack distributed-memory algorithm (size of sub-group:  6*  6 procs)

 
     Parallelization info
     --------------------
     sticks:   dense  smooth     PW     G-vecs:    dense   smooth      PW
     Min         303     303     75                35728    35728    4455
     Max         306     306     80                35736    35736    4472
     Sum       24345   24345   6093              2858633  2858633  357213
 


     bravais-lattice index     =            1
     lattice parameter (alat)  =      30.0000  a.u.
     unit-cell volume          =   27000.0000 (a.u.)^3
     number of atoms/cell      =            2
     number of atomic types    =            2
     number of electrons       =        10.00
     number of Kohn-Sham states=          100
     kinetic-energy cutoff     =      85.0000  Ry
     charge density cutoff     =     340.0000  Ry
     convergence threshold     =      1.0E-06
     mixing beta               =       0.4000
     number of iterations used =            8  plain     mixing
     Exchange-correlation      = PBE ( 1  4  3  4 0 0)

     celldm(1)=  30.000000  celldm(2)=   0.000000  celldm(3)=   0.000000
     celldm(4)=   0.000000  celldm(5)=   0.000000  celldm(6)=   0.000000

     crystal axes: (cart. coord. in units of alat)
               a(1) = (   1.000000   0.000000   0.000000 )  
               a(2) = (   0.000000   1.000000   0.000000 )  
               a(3) = (   0.000000   0.000000   1.000000 )  

     reciprocal axes: (cart. coord. in units 2 pi/alat)
               b(1) = (  1.000000  0.000000  0.000000 )  
               b(2) = (  0.000000  1.000000  0.000000 )  
               b(3) = (  0.000000  0.000000  1.000000 )  


     PseudoPot. # 1 for C  read from file:
     ~/PseudoPotential/upf/C_ONCV_PBE-1.0.upf
     MD5 check sum: Not computed, couldn't open file
     Pseudo is Norm-conserving, Zval =  4.0
     Generated using ONCVPSP code by D. R. Hamann
     Using radial grid of  602 points,  4 beta functions with: 
                l(1) =   0
                l(2) =   0
                l(3) =   1
                l(4) =   1

     PseudoPot. # 2 for S  read from file:
     ~/PseudoPotential/upf/S_ONCV_PBE-1.0.upf
     MD5 check sum: Not computed, couldn't open file
     Pseudo is Norm-conserving, Zval =  6.0
     Generated using ONCVPSP code by D. R. Hamann
     Using radial grid of  602 points,  4 beta functions with: 
                l(1) =   0
                l(2) =   0
                l(3) =   1
                l(4) =   1

     atomic species   valence    mass     pseudopotential
        C              4.00     1.00000     C ( 1.00)
        S              6.00     1.00000     S ( 1.00)

     No symmetry found



   Cartesian axes

     site n.     atom                  positions (alat units)
         1           C   tau(   1) = (   0.0000000   0.0000000  -0.0707628  )
         2           S   tau(   2) = (   0.0000000   0.0000000   0.0265360  )

     number of k points=     1
                       cart. coord. in units 2pi/alat
        k(    1) = (   0.0000000   0.0000000   0.0000000), wk =   2.0000000

     Dense  grid:  1429317 G-vectors     FFT dimensions: ( 180, 180, 180)

     Estimated max dynamical RAM per process >      49.07MB

     Estimated total allocated dynamical RAM >    3925.74MB

     Initial potential from superposition of free atoms
     Check: negative starting charge=   -0.000693

     starting charge    9.98270, renormalised to   10.00000

     negative rho (up, down):  6.939E-04 0.000E+00
     Starting wfc are random

     total cpu time spent up to now is        2.8 secs

     per-process dynamical memory:    66.9 Mb

     Self-consistent Calculation

     iteration #  1     ecut=    85.00 Ry     beta=0.40
     Davidson diagonalization with overlap
     ethr =  1.00E-02,  avg # of iterations = 13.0

     negative rho (up, down):  2.068E-04 0.000E+00

     total cpu time spent up to now is        9.6 secs

     total energy              =     -31.53422738 Ry
     Harris-Foulkes estimate   =     -31.74484453 Ry
     estimated scf accuracy    <       0.39508623 Ry

     iteration #  2     ecut=    85.00 Ry     beta=0.40
     Davidson diagonalization with overlap
     ethr =  3.95E-03,  avg # of iterations =  1.0

     negative rho (up, down):  1.440E-04 0.000E+00

     total cpu time spent up to now is       11.1 secs

     total energy              =     -31.62428220 Ry
     Harris-Foulkes estimate   =     -31.72497037 Ry
     estimated scf accuracy    <       0.31693196 Ry

     iteration #  3     ecut=    85.00 Ry     beta=0.40
     Davidson diagonalization with overlap
     ethr =  3.17E-03,  avg # of iterations =  1.0

     negative rho (up, down):  2.810E-05 0.000E+00

     total cpu time spent up to now is       12.6 secs

     total energy              =     -31.65946503 Ry
     Harris-Foulkes estimate   =     -31.66381169 Ry
     estimated scf accuracy    <       0.01174624 Ry

     iteration #  4     ecut=    85.00 Ry     beta=0.40
     Davidson diagonalization with overlap
     ethr =  1.17E-04,  avg # of iterations =  5.0

     negative rho (up, down):  1.871E-05 0.000E+00

     total cpu time spent up to now is       14.3 secs

     total energy              =     -31.66093166 Ry
     Harris-Foulkes estimate   =     -31.66176674 Ry
     estimated scf accuracy    <       0.00241562 Ry

     iteration #  5     ecut=    85.00 Ry     beta=0.40
     Davidson diagonalization with overlap
     ethr =  2.42E-05,  avg # of iterations =  8.0

     negative rho (up, down):  2.455E-06 0.000E+00

     total cpu time spent up to now is       16.3 secs

     total energy              =     -31.66129159 Ry
     Harris-Foulkes estimate   =     -31.66130430 Ry
     estimated scf accuracy    <       0.00021392 Ry

     iteration #  6     ecut=    85.00 Ry     beta=0.40
     Davidson diagonalization with overlap
     ethr =  2.14E-06,  avg # of iterations = 14.0

     negative rho (up, down):  7.824E-07 0.000E+00

     total cpu time spent up to now is       19.4 secs

     total energy              =     -31.66131813 Ry
     Harris-Foulkes estimate   =     -31.66131777 Ry
     estimated scf accuracy    <       0.00001073 Ry

     iteration #  7     ecut=    85.00 Ry     beta=0.40
     Davidson diagonalization with overlap
     ethr =  1.07E-07,  avg # of iterations =  2.0

     negative rho (up, down):  3.686E-07 0.000E+00

     total cpu time spent up to now is       21.0 secs

     total energy              =     -31.66132072 Ry
     Harris-Foulkes estimate   =     -31.66132439 Ry
     estimated scf accuracy    <       0.00001308 Ry

     iteration #  8     ecut=    85.00 Ry     beta=0.40
     Davidson diagonalization with overlap
     ethr =  1.07E-07,  avg # of iterations =  2.0

     negative rho (up, down):  1.580E-07 0.000E+00

     total cpu time spent up to now is       22.5 secs

     total energy              =     -31.66132379 Ry
     Harris-Foulkes estimate   =     -31.66132406 Ry
     estimated scf accuracy    <       0.00000151 Ry

     iteration #  9     ecut=    85.00 Ry     beta=0.40
     Davidson diagonalization with overlap
     ethr =  1.51E-08,  avg # of iterations =  1.0

     total cpu time spent up to now is       24.0 secs

     End of self-consistent calculation

          k = 0.0000 0.0000 0.0000 (178607 PWs)   bands (ev):

   -20.8155 -13.0210  -8.7954  -8.7954  -7.3478  -3.3243  -3.3243  -0.2645
     0.1476   0.3029   0.4562   0.4562   0.6174   0.6266   0.8135   1.0097
     1.0097   1.0172   1.0867   1.1598   1.1598   1.1943   1.2189   1.2444
     1.2447   1.2447   1.4757   1.6774   1.7344   1.7344   1.7486   1.7550
     1.7550   1.7938   1.9122   1.9462   2.2674   2.2675   2.2756   2.4131
     2.4156   2.4506   2.6618   2.7773   2.7847   2.7847   2.8301   2.8302
     2.8808   2.8894   2.8894   2.9112   2.9625   2.9625   3.0068   3.0081
     3.0081   3.0165   3.0227   3.0297   3.0484   3.0499   3.0499   3.0607
     3.1805   3.2626   3.3916   3.4308   3.4308   3.4515   3.4724   3.4724
     3.4906   3.5616   3.5668   3.5668   3.5668   3.5887   3.5887   3.6001
     3.6001   3.6111   3.6125   3.6128   3.6128   3.6269   3.6293   3.6377
     3.8153   4.1343   4.1586   4.1705   4.5344   4.5344   4.6282   4.6912
     4.7035   4.7035   4.7455   4.7455

     highest occupied, lowest unoccupied level (ev):    -7.3478   -3.3243

!    total energy              =     -31.66132389 Ry
     Harris-Foulkes estimate   =     -31.66132396 Ry
     estimated scf accuracy    <       0.00000012 Ry

     The total energy is the sum of the following terms:

     one-electron contribution =     -63.41014889 Ry
     hartree contribution      =      32.27518355 Ry
     xc contribution           =      -7.54505346 Ry
     ewald contribution        =       7.01869490 Ry

     charge density inside the Wigner-Seitz cell:   10.00000000

     reference position (x0):         0.00000000    0.00000000   -0.37150504 bohr

     Dipole moments (with respect to x0):
     Elect   0.0000  -0.0000   0.7731 au (Ha),   0.0000  -0.0000   1.9651 Debye
     Ionic   0.0000   0.0000  -0.0000 au (Ha),   0.0000   0.0000  -0.0000 Debye
     Total   0.0000  -0.0000   0.7731 au (Ha),   0.0000  -0.0000   1.9651 Debye

     Electrons quadrupole moment        -60.19185629 a.u. (Ha)
          Ions quadrupole moment         20.44886261 a.u. (Ha)
         Total quadrupole moment        -39.74299368 a.u. (Ha)

     *********    MAKOV-PAYNE CORRECTION    *********

     Makov-Payne correction with Madelung constant =   2.8373

     Makov-Payne correction     0.00000000 Ry =  0.000 eV (1st order, 1/a0)
                                0.00009273 Ry =  0.001 eV (2nd order, 1/a0^3)
                                0.00009273 Ry =  0.001 eV (total)

!    Total+Makov-Payne energy  =     -31.66123116 Ry
     Corrected vacuum level    =       0.08396508 eV

     convergence has been achieved in   9 iterations

     Writing output data file ./cs.save
 
     init_run     :      1.53s CPU      1.82s WALL (       1 calls)
     electrons    :     21.30s CPU     21.54s WALL (       1 calls)

     Called by init_run:
     wfcinit      :      0.56s CPU      0.62s WALL (       1 calls)
     potinit      :      0.20s CPU      0.26s WALL (       1 calls)

     Called by electrons:
     c_bands      :     17.61s CPU     17.69s WALL (       9 calls)
     sum_band     :      2.37s CPU      2.39s WALL (       9 calls)
     v_of_rho     :      1.02s CPU      1.06s WALL (      10 calls)
     mix_rho      :      0.15s CPU      0.16s WALL (       9 calls)

     Called by c_bands:
     init_us_2    :      0.01s CPU      0.02s WALL (      19 calls)
     regterg      :     17.59s CPU     17.67s WALL (       9 calls)

     Called by sum_band:

     Called by *egterg:
     h_psi        :     13.31s CPU     13.37s WALL (      57 calls)
     g_psi        :      0.03s CPU      0.03s WALL (      47 calls)
     rdiaghg      :      2.08s CPU      2.12s WALL (      56 calls)

     Called by h_psi:
     h_psi:pot    :     13.21s CPU     13.27s WALL (      57 calls)
     h_psi:calbec :      0.09s CPU      0.09s WALL (      57 calls)
     vloc_psi     :     13.09s CPU     13.14s WALL (      57 calls)
     add_vuspsi   :      0.03s CPU      0.04s WALL (      57 calls)

     General routines
     calbec       :      0.09s CPU      0.09s WALL (      57 calls)
     fft          :      1.07s CPU      1.20s WALL (     109 calls)
     fftw         :     14.38s CPU     14.27s WALL (    3280 calls)
 
     Parallel routines
     fft_scatter  :     11.67s CPU     11.43s WALL (    3389 calls)
 
     PWSCF        :    25.13s CPU        29.46s WALL

 
   This run was terminated on:  21: 4:19  18Apr2018            

=------------------------------------------------------------------------------=
   JOB DONE.
=------------------------------------------------------------------------------=
