
     Program PWSCF v.6.1 (svn rev. 13369) starts on  4Jul2018 at 12:47:42 

     This program is part of the open-source Quantum ESPRESSO suite
     for quantum simulation of materials; please cite
         "P. Giannozzi et al., J. Phys.:Condens. Matter 21 395502 (2009);
          URL http://www.quantum-espresso.org", 
     in publications or presentations arising from this work. More details at
     http://www.quantum-espresso.org/quote

     Parallel version (MPI & OpenMP), running on      40 processor cores
     Number of MPI processes:                40
     Threads/MPI process:                     1
     R & G space division:  proc/nbgrp/npool/nimage =      40
     Waiting for input...
     Reading input from standard input

     Current dimensions of program PWSCF are:
     Max number of different atomic species (ntypx) = 10
     Max number of k-points (npk) =  40000
     Max angular momentum in pseudopotentials (lmaxx) =  3

     gamma-point specific algorithms are used

     Subspace diagonalization in iterative solution of the eigenvalue problem:
     one sub-group per band group will be used
     scalapack distributed-memory algorithm (size of sub-group:  4*  4 procs)

 
     Parallelization info
     --------------------
     sticks:   dense  smooth     PW     G-vecs:    dense   smooth      PW
     Min         608     608    151                71460    71460    8926
     Max         610     610    158                71470    71470    8932
     Sum       24345   24345   6093              2858633  2858633  357213
 


     bravais-lattice index     =            1
     lattice parameter (alat)  =      30.0000  a.u.
     unit-cell volume          =   27000.0000 (a.u.)^3
     number of atoms/cell      =            2
     number of atomic types    =            2
     number of electrons       =         8.00
     number of Kohn-Sham states=          100
     kinetic-energy cutoff     =      85.0000  Ry
     charge density cutoff     =     340.0000  Ry
     convergence threshold     =      1.0E-06
     mixing beta               =       0.4000
     number of iterations used =            8  plain     mixing
     Exchange-correlation      = PBE ( 1  4  3  4 0 0)

     celldm(1)=  30.000000  celldm(2)=   0.000000  celldm(3)=   0.000000
     celldm(4)=   0.000000  celldm(5)=   0.000000  celldm(6)=   0.000000

     crystal axes: (cart. coord. in units of alat)
               a(1) = (   1.000000   0.000000   0.000000 )  
               a(2) = (   0.000000   1.000000   0.000000 )  
               a(3) = (   0.000000   0.000000   1.000000 )  

     reciprocal axes: (cart. coord. in units 2 pi/alat)
               b(1) = (  1.000000  0.000000  0.000000 )  
               b(2) = (  0.000000  1.000000  0.000000 )  
               b(3) = (  0.000000  0.000000  1.000000 )  


     PseudoPot. # 1 for Cl read from file:
     ~/PseudoPotential/upf/Cl_ONCV_PBE-1.0.upf
     MD5 check sum: Not computed, couldn't open file
     Pseudo is Norm-conserving, Zval =  7.0
     Generated using ONCVPSP code by D. R. Hamann
     Using radial grid of  602 points,  4 beta functions with: 
                l(1) =   0
                l(2) =   0
                l(3) =   1
                l(4) =   1

     PseudoPot. # 2 for H  read from file:
     ~/PseudoPotential/upf/H_ONCV_PBE-1.0.upf
     MD5 check sum: Not computed, couldn't open file
     Pseudo is Norm-conserving, Zval =  1.0
     Generated using ONCVPSP code by D. R. Hamann
     Using radial grid of  602 points,  2 beta functions with: 
                l(1) =   0
                l(2) =   0

     atomic species   valence    mass     pseudopotential
        Cl             7.00     1.00000     Cl( 1.00)
        H              1.00     1.00000     H ( 1.00)

     No symmetry found



   Cartesian axes

     site n.     atom                  positions (alat units)
         1           Cl  tau(   1) = (   0.0000000   0.0000000   0.0044793  )
         2           H   tau(   2) = (   0.0000000   0.0000000  -0.0761476  )

     number of k points=     1
                       cart. coord. in units 2pi/alat
        k(    1) = (   0.0000000   0.0000000   0.0000000), wk =   2.0000000

     Dense  grid:  1429317 G-vectors     FFT dimensions: ( 180, 180, 180)

     Estimated max dynamical RAM per process >      60.90MB

     Estimated total allocated dynamical RAM >    2435.83MB

     Initial potential from superposition of free atoms
     Check: negative starting charge=   -0.000337

     starting charge    7.99318, renormalised to    8.00000

     negative rho (up, down):  3.375E-04 0.000E+00
     Starting wfc are random

     total cpu time spent up to now is        2.4 secs

     per-process dynamical memory:    68.1 Mb

     Self-consistent Calculation

     iteration #  1     ecut=    85.00 Ry     beta=0.40
     Davidson diagonalization with overlap
     ethr =  1.00E-02,  avg # of iterations = 15.0

     Threshold (ethr) on eigenvalues was too large:
     Diagonalizing with lowered threshold

     Davidson diagonalization with overlap
     ethr =  5.76E-04,  avg # of iterations =  2.0

     negative rho (up, down):  1.139E-04 0.000E+00

     total cpu time spent up to now is       14.4 secs

     total energy              =     -31.35571411 Ry
     Harris-Foulkes estimate   =     -31.37100260 Ry
     estimated scf accuracy    <       0.04609908 Ry

     iteration #  2     ecut=    85.00 Ry     beta=0.40
     Davidson diagonalization with overlap
     ethr =  5.76E-04,  avg # of iterations =  1.0

     negative rho (up, down):  3.661E-05 0.000E+00

     total cpu time spent up to now is       16.5 secs

     total energy              =     -31.35642138 Ry
     Harris-Foulkes estimate   =     -31.35860465 Ry
     estimated scf accuracy    <       0.00905304 Ry

     iteration #  3     ecut=    85.00 Ry     beta=0.40
     Davidson diagonalization with overlap
     ethr =  1.13E-04,  avg # of iterations =  5.0

     negative rho (up, down):  3.107E-06 0.000E+00

     total cpu time spent up to now is       18.9 secs

     total energy              =     -31.35663336 Ry
     Harris-Foulkes estimate   =     -31.35684962 Ry
     estimated scf accuracy    <       0.00113531 Ry

     iteration #  4     ecut=    85.00 Ry     beta=0.40
     Davidson diagonalization with overlap
     ethr =  1.42E-05,  avg # of iterations =  6.0

     negative rho (up, down):  5.322E-07 0.000E+00

     total cpu time spent up to now is       21.6 secs

     total energy              =     -31.35667383 Ry
     Harris-Foulkes estimate   =     -31.35667343 Ry
     estimated scf accuracy    <       0.00001139 Ry

     iteration #  5     ecut=    85.00 Ry     beta=0.40
     Davidson diagonalization with overlap
     ethr =  1.42E-07,  avg # of iterations =  5.0

     negative rho (up, down):  8.994E-08 0.000E+00

     total cpu time spent up to now is       24.3 secs

     total energy              =     -31.35667590 Ry
     Harris-Foulkes estimate   =     -31.35667598 Ry
     estimated scf accuracy    <       0.00000179 Ry

     iteration #  6     ecut=    85.00 Ry     beta=0.40
     Davidson diagonalization with overlap
     ethr =  2.24E-08,  avg # of iterations =  2.0

     total cpu time spent up to now is       26.5 secs

     End of self-consistent calculation

          k = 0.0000 0.0000 0.0000 (178607 PWs)   bands (ev):

   -21.1519 -11.7289  -7.9694  -7.9694  -1.0785   0.0550   0.4556   0.5083
     0.5083   0.5352   0.6221   0.6688   1.0074   1.0209   1.0209   1.0814
     1.1332   1.1332   1.1513   1.2055   1.2305   1.2305   1.2337   1.2576
     1.6850   1.6850   1.7109   1.7267   1.7364   1.7364   1.7721   1.7988
     2.1630   2.2656   2.2837   2.2837   2.3411   2.4489   2.5313   2.5314
     2.6767   2.7288   2.7470   2.8225   2.8225   2.8718   2.9263   2.9263
     2.9277   2.9587   2.9724   2.9724   3.0061   3.0061   3.0113   3.0146
     3.0164   3.0312   3.0313   3.0323   3.0385   3.0910   3.2790   3.2790
     3.3269   3.4419   3.4671   3.4777   3.4777   3.4983   3.5430   3.5716
     3.5716   3.5776   3.5810   3.5815   3.5816   3.5974   3.5975   3.6023
     3.6032   3.6051   3.6051   3.6154   3.6180   3.6811   4.2380   4.2380
     4.4252   4.4613   4.6811   4.6812   4.6877   4.6936   4.7473   4.7474
     4.7535   4.8276   4.9102   4.9558

     highest occupied, lowest unoccupied level (ev):    -7.9694   -1.0785

!    total energy              =     -31.35667593 Ry
     Harris-Foulkes estimate   =     -31.35667608 Ry
     estimated scf accuracy    <       0.00000023 Ry

     The total energy is the sum of the following terms:

     one-electron contribution =     -50.48876621 Ry
     hartree contribution      =      25.83156883 Ry
     xc contribution           =      -6.44096745 Ry
     ewald contribution        =      -0.25851109 Ry

     charge density inside the Wigner-Seitz cell:    8.00000000

     reference position (x0):         0.00000000    0.00000000   -0.16797256 bohr

     Dipole moments (with respect to x0):
     Elect   0.0000   0.0000  -0.4213 au (Ha),   0.0000   0.0000  -1.0709 Debye
     Ionic   0.0000   0.0000   0.0000 au (Ha),   0.0000   0.0000   0.0000 Debye
     Total   0.0000   0.0000  -0.4213 au (Ha),   0.0000   0.0000  -1.0709 Debye

     Electrons quadrupole moment        -32.18277682 a.u. (Ha)
          Ions quadrupole moment          5.11930260 a.u. (Ha)
         Total quadrupole moment        -27.06347422 a.u. (Ha)

     *********    MAKOV-PAYNE CORRECTION    *********

     Makov-Payne correction with Madelung constant =   2.8373

     Makov-Payne correction     0.00000000 Ry =  0.000 eV (1st order, 1/a0)
                                0.00002754 Ry =  0.000 eV (2nd order, 1/a0^3)
                                0.00002754 Ry =  0.000 eV (total)

!    Total+Makov-Payne energy  =     -31.35664839 Ry
     Corrected vacuum level    =       0.05712518 eV

     convergence has been achieved in   6 iterations

     Writing output data file ./hcl.save
 
     init_run     :      1.61s CPU      1.90s WALL (       1 calls)
     electrons    :     22.93s CPU     24.49s WALL (       1 calls)

     Called by init_run:
     wfcinit      :      0.70s CPU      0.76s WALL (       1 calls)
     potinit      :      0.28s CPU      0.44s WALL (       1 calls)

     Called by electrons:
     c_bands      :     18.98s CPU     19.35s WALL (       7 calls)
     sum_band     :      2.55s CPU      2.74s WALL (       7 calls)
     v_of_rho     :      1.15s CPU      2.10s WALL (       7 calls)
     mix_rho      :      0.14s CPU      0.20s WALL (       7 calls)

     Called by c_bands:
     init_us_2    :      0.02s CPU      0.02s WALL (      15 calls)
     regterg      :     18.94s CPU     19.31s WALL (       7 calls)

     Called by sum_band:

     Called by *egterg:
     h_psi        :     15.00s CPU     15.10s WALL (      44 calls)
     g_psi        :      0.05s CPU      0.06s WALL (      36 calls)
     rdiaghg      :      1.06s CPU      1.12s WALL (      42 calls)

     Called by h_psi:
     h_psi:pot    :     14.81s CPU     14.90s WALL (      44 calls)
     h_psi:calbec :      0.11s CPU      0.10s WALL (      44 calls)
     vloc_psi     :     14.63s CPU     14.72s WALL (      44 calls)
     add_vuspsi   :      0.06s CPU      0.08s WALL (      44 calls)

     General routines
     calbec       :      0.11s CPU      0.10s WALL (      44 calls)
     fft          :      1.08s CPU      2.03s WALL (      78 calls)
     fftw         :     14.12s CPU     14.08s WALL (    2892 calls)
 
     Parallel routines
     fft_scatter  :      8.75s CPU      8.87s WALL (    2970 calls)
 
     PWSCF        :    26.39s CPU        30.96s WALL

 
   This run was terminated on:  12:48:13   4Jul2018            

=------------------------------------------------------------------------------=
   JOB DONE.
=------------------------------------------------------------------------------=
