
     Program PWSCF v.6.1 (svn rev. 13369) starts on 18Sep2017 at 17: 1:59 

     This program is part of the open-source Quantum ESPRESSO suite
     for quantum simulation of materials; please cite
         "P. Giannozzi et al., J. Phys.:Condens. Matter 21 395502 (2009);
          URL http://www.quantum-espresso.org", 
     in publications or presentations arising from this work. More details at
     http://www.quantum-espresso.org/quote

     Parallel version (MPI & OpenMP), running on      40 processor cores
     Number of MPI processes:                40
     Threads/MPI process:                     1
     R & G space division:  proc/nbgrp/npool/nimage =      40
     Waiting for input...
     Reading input from standard input

     Current dimensions of program PWSCF are:
     Max number of different atomic species (ntypx) = 10
     Max number of k-points (npk) =  40000
     Max angular momentum in pseudopotentials (lmaxx) =  3

     gamma-point specific algorithms are used

     Subspace diagonalization in iterative solution of the eigenvalue problem:
     one sub-group per band group will be used
     scalapack distributed-memory algorithm (size of sub-group:  4*  4 procs)

 
     Parallelization info
     --------------------
     sticks:   dense  smooth     PW     G-vecs:    dense   smooth      PW
     Min         234     234     58                17118    17118    2138
     Max         236     236     60                17128    17128    2148
     Sum        9401    9401   2361               684885   684885   85687
 


     bravais-lattice index     =            1
     lattice parameter (alat)  =      20.5290  a.u.
     unit-cell volume          =    8651.7385 (a.u.)^3
     number of atoms/cell      =            1
     number of atomic types    =            1
     number of electrons       =         5.00 (up:   4.00, down:   1.00)
     number of Kohn-Sham states=           20
     kinetic-energy cutoff     =      70.0000  Ry
     charge density cutoff     =     280.0000  Ry
     convergence threshold     =      1.0E-06
     mixing beta               =       0.7000
     number of iterations used =            8  plain     mixing
     Exchange-correlation      = PBE ( 1  4  3  4 0 0)

     celldm(1)=  20.529000  celldm(2)=   0.000000  celldm(3)=   0.000000
     celldm(4)=   0.000000  celldm(5)=   0.000000  celldm(6)=   0.000000

     crystal axes: (cart. coord. in units of alat)
               a(1) = (   1.000000   0.000000   0.000000 )  
               a(2) = (   0.000000   1.000000   0.000000 )  
               a(3) = (   0.000000   0.000000   1.000000 )  

     reciprocal axes: (cart. coord. in units 2 pi/alat)
               b(1) = (  1.000000  0.000000  0.000000 )  
               b(2) = (  0.000000  1.000000  0.000000 )  
               b(3) = (  0.000000  0.000000  1.000000 )  


     PseudoPot. # 1 for N  read from file:
     ./N_ONCV_PBE-1.0.upf
     MD5 check sum: e7391ac1e3da9302b4611eea0a09cd4a
     Pseudo is Norm-conserving, Zval =  5.0
     Generated using ONCVPSP code by D. R. Hamann
     Using radial grid of  602 points,  4 beta functions with: 
                l(1) =   0
                l(2) =   0
                l(3) =   1
                l(4) =   1

     atomic species   valence    mass     pseudopotential
        N              5.00    14.00670     N ( 1.00)

     Starting magnetic structure 
     atomic species   magnetization
        N            0.000

     No symmetry found



   Cartesian axes

     site n.     atom                  positions (alat units)
         1           N   tau(   1) = (   0.0000000   0.0000000   0.0000000  )

     number of k points=     1  gaussian smearing, width (Ry)=  0.0010
                       cart. coord. in units 2pi/alat
        k(    1) = (   0.0000000   0.0000000   0.0000000), wk =   1.0000000

     Dense  grid:   342443 G-vectors     FFT dimensions: ( 120, 120, 120)

     Estimated max dynamical RAM per process >      13.08MB

     Estimated total allocated dynamical RAM >     523.09MB
     Generating pointlists ...
     new r_m :   0.4125 (alat units)  8.4682 (a.u.) for type    1

     Initial potential from superposition of free atoms
     Check: negative starting charge=(component1):   -0.000141
     Check: negative starting charge=(component2):   -0.000141

     starting charge    4.99741, renormalised to    5.00000

     negative rho (up, down):  1.413E-04 1.413E-04
     Starting wfc are random

     total cpu time spent up to now is        4.3 secs

     per-process dynamical memory:    34.5 Mb

     Self-consistent Calculation

     iteration #  1     ecut=    70.00 Ry     beta=0.70
     Davidson diagonalization with overlap
     ethr =  1.00E-02,  avg # of iterations =  8.0

     negative rho (up, down):  5.017E-06 3.608E-05

     total cpu time spent up to now is        5.3 secs

     total energy              =     -19.50339080 Ry
     Harris-Foulkes estimate   =     -19.28799833 Ry
     estimated scf accuracy    <       0.10611404 Ry

     total magnetization       =     3.00 Bohr mag/cell
     absolute magnetization    =     3.00 Bohr mag/cell

     iteration #  2     ecut=    70.00 Ry     beta=0.70
     Davidson diagonalization with overlap
     ethr =  2.12E-03,  avg # of iterations =  1.0

     total cpu time spent up to now is        5.6 secs

     total energy              =     -19.53452574 Ry
     Harris-Foulkes estimate   =     -19.50876620 Ry
     estimated scf accuracy    <       0.01672730 Ry

     total magnetization       =     3.00 Bohr mag/cell
     absolute magnetization    =     3.00 Bohr mag/cell

     iteration #  3     ecut=    70.00 Ry     beta=0.70
     Davidson diagonalization with overlap
     ethr =  3.35E-04,  avg # of iterations =  2.0

     negative rho (up, down):  1.827E-08 3.309E-07

     total cpu time spent up to now is        5.9 secs

     total energy              =     -19.53597881 Ry
     Harris-Foulkes estimate   =     -19.53625121 Ry
     estimated scf accuracy    <       0.00058755 Ry

     total magnetization       =     3.00 Bohr mag/cell
     absolute magnetization    =     3.00 Bohr mag/cell

     iteration #  4     ecut=    70.00 Ry     beta=0.70
     Davidson diagonalization with overlap
     ethr =  1.18E-05,  avg # of iterations =  8.5

     negative rho (up, down):  6.671E-08 1.949E-08

     total cpu time spent up to now is        6.5 secs

     total energy              =     -19.53611701 Ry
     Harris-Foulkes estimate   =     -19.53609095 Ry
     estimated scf accuracy    <       0.00000621 Ry

     total magnetization       =     3.00 Bohr mag/cell
     absolute magnetization    =     3.00 Bohr mag/cell

     iteration #  5     ecut=    70.00 Ry     beta=0.70
     Davidson diagonalization with overlap
     ethr =  1.24E-07,  avg # of iterations = 11.5
 
     Magnetic moment per site:
     atom:    1    charge:    5.0000    magn:    3.0000    constr:    0.0000

     total cpu time spent up to now is        7.0 secs

     End of self-consistent calculation

 ------ SPIN UP ------------


          k = 0.0000 0.0000 0.0000 ( 42844 PWs)   bands (ev):

   -19.8319  -8.2713  -8.2713  -8.2712  -0.4220   0.8206   0.8988   0.8989
     0.8991   1.1259   1.1261   2.1279   2.1281   2.1284   2.1801   2.1802
     2.1804   2.3334   2.4008   2.4013

 ------ SPIN DOWN ----------


          k = 0.0000 0.0000 0.0000 ( 42844 PWs)   bands (ev):

   -14.9851  -3.7378  -3.7377  -3.7376  -0.0771   1.2172   1.2267   1.2269
     1.2271   1.2355   1.2356   2.4146   2.4147   2.4149   2.5022   2.5026
     2.5047   2.5069   2.5114   2.5259

     the spin up/dw Fermi energies are    -3.0500   -8.6530 ev

!    total energy              =     -19.53612089 Ry
     Harris-Foulkes estimate   =     -19.53612132 Ry
     estimated scf accuracy    <       0.00000082 Ry

     The total energy is the sum of the following terms:

     one-electron contribution =     -24.43420428 Ry
     hartree contribution      =      13.11995623 Ry
     xc contribution           =      -4.76664185 Ry
     ewald contribution        =      -3.45523099 Ry
     smearing contrib. (-TS)   =      -0.00000000 Ry

     total magnetization       =     3.00 Bohr mag/cell
     absolute magnetization    =     3.00 Bohr mag/cell

     charge density inside the Wigner-Seitz cell:    5.00000000

     reference position (x0):         0.00000000    0.00000000    0.00000000 bohr

     Dipole moments (with respect to x0):
     Elect   0.0001   0.0001  -0.0001 au (Ha),   0.0002   0.0002  -0.0002 Debye
     Ionic   0.0000   0.0000   0.0000 au (Ha),   0.0000   0.0000   0.0000 Debye
     Total   0.0001   0.0001  -0.0001 au (Ha),   0.0002   0.0002  -0.0002 Debye

     Electrons quadrupole moment        -12.41445196 a.u. (Ha)
          Ions quadrupole moment          0.00000000 a.u. (Ha)
         Total quadrupole moment        -12.41445196 a.u. (Ha)

     *********    MAKOV-PAYNE CORRECTION    *********

     Makov-Payne correction with Madelung constant =   2.8373

     Makov-Payne correction     0.00000000 Ry =  0.000 eV (1st order, 1/a0)
                                0.00000000 Ry =  0.000 eV (2nd order, 1/a0^3)
                                0.00000000 Ry =  0.000 eV (total)

!    Total+Makov-Payne energy  =     -19.53612089 Ry
     Corrected vacuum level    =       0.08143621 eV

     convergence has been achieved in   5 iterations

     Writing output data file n-atom.save
 
     init_run     :      0.54s CPU      1.52s WALL (       1 calls)
     electrons    :      2.65s CPU      3.30s WALL (       1 calls)

     Called by init_run:
     wfcinit      :      0.20s CPU      0.51s WALL (       1 calls)
     potinit      :      0.13s CPU      0.30s WALL (       1 calls)

     Called by electrons:
     c_bands      :      1.79s CPU      1.90s WALL (       5 calls)
     sum_band     :      0.24s CPU      0.29s WALL (       5 calls)
     v_of_rho     :      0.45s CPU      0.59s WALL (       6 calls)
     mix_rho      :      0.06s CPU      0.09s WALL (       5 calls)

     Called by c_bands:
     init_us_2    :      0.00s CPU      0.02s WALL (      22 calls)
     regterg      :      1.78s CPU      1.87s WALL (      10 calls)

     Called by sum_band:

     Called by *egterg:
     h_psi        :      1.36s CPU      1.48s WALL (      74 calls)
     g_psi        :      0.00s CPU      0.00s WALL (      62 calls)
     rdiaghg      :      0.41s CPU      0.51s WALL (      72 calls)

     Called by h_psi:
     h_psi:pot    :      1.36s CPU      1.48s WALL (      74 calls)
     h_psi:calbec :      0.05s CPU      0.06s WALL (      74 calls)
     vloc_psi     :      1.30s CPU      1.40s WALL (      74 calls)
     add_vuspsi   :      0.00s CPU      0.01s WALL (      74 calls)

     General routines
     calbec       :      0.05s CPU      0.06s WALL (      74 calls)
     fft          :      0.37s CPU      0.68s WALL (     123 calls)
     fftw         :      1.45s CPU      1.49s WALL (     948 calls)
 
     Parallel routines
     fft_scatter  :      1.45s CPU      1.31s WALL (    1071 calls)
 
     PWSCF        :     4.65s CPU         9.55s WALL

 
   This run was terminated on:  17: 2: 8  18Sep2017            

=------------------------------------------------------------------------------=
   JOB DONE.
=------------------------------------------------------------------------------=
