
     Program PWSCF v.6.1 (svn rev. 13369) starts on 11Sep2017 at 16:34:29 

     This program is part of the open-source Quantum ESPRESSO suite
     for quantum simulation of materials; please cite
         "P. Giannozzi et al., J. Phys.:Condens. Matter 21 395502 (2009);
          URL http://www.quantum-espresso.org", 
     in publications or presentations arising from this work. More details at
     http://www.quantum-espresso.org/quote

     Parallel version (MPI & OpenMP), running on      80 processor cores
     Number of MPI processes:                80
     Threads/MPI process:                     1
     R & G space division:  proc/nbgrp/npool/nimage =      80
     Waiting for input...
     Reading input from standard input

     Current dimensions of program PWSCF are:
     Max number of different atomic species (ntypx) = 10
     Max number of k-points (npk) =  40000
     Max angular momentum in pseudopotentials (lmaxx) =  3

     gamma-point specific algorithms are used

     Subspace diagonalization in iterative solution of the eigenvalue problem:
     one sub-group per band group will be used
     scalapack distributed-memory algorithm (size of sub-group:  6*  6 procs)

     Found symmetry operation: I + (  0.2500  0.2500  0.0000)
     This is a supercell, fractional translations are disabled
 
     Parallelization info
     --------------------
     sticks:   dense  smooth     PW     G-vecs:    dense   smooth      PW
     Min          65      65     16                 3690     3690     460
     Max          68      68     18                 3704     3704     474
     Sum        5377    5377   1353               295907   295907   37073
 


     bravais-lattice index     =            1
     lattice parameter (alat)  =      20.5280  a.u.
     unit-cell volume          =    8650.4742 (a.u.)^3
     number of atoms/cell      =           64
     number of atomic types    =            1
     number of electrons       =       256.00
     number of Kohn-Sham states=          250
     kinetic-energy cutoff     =      40.0000  Ry
     charge density cutoff     =     160.0000  Ry
     convergence threshold     =      1.0E-06
     mixing beta               =       0.7000
     number of iterations used =            8  plain     mixing
     Exchange-correlation      =  SLA  PW   PBE  PBE ( 1  4  3  4 0 0)

     celldm(1)=  20.528000  celldm(2)=   0.000000  celldm(3)=   0.000000
     celldm(4)=   0.000000  celldm(5)=   0.000000  celldm(6)=   0.000000

     crystal axes: (cart. coord. in units of alat)
               a(1) = (   1.000000   0.000000   0.000000 )  
               a(2) = (   0.000000   1.000000   0.000000 )  
               a(3) = (   0.000000   0.000000   1.000000 )  

     reciprocal axes: (cart. coord. in units 2 pi/alat)
               b(1) = (  1.000000  0.000000  0.000000 )  
               b(2) = (  0.000000  1.000000  0.000000 )  
               b(3) = (  0.000000  0.000000  1.000000 )  


     PseudoPot. # 1 for Si read from file:
     ./Si.pbe-rrkj.upf
     MD5 check sum: cf7ab5690cd9a85b22c4813f7e365554
     Pseudo is Norm-conserving, Zval =  4.0
     Generated by new atomic code, or converted to UPF format
     Using radial grid of  883 points,  3 beta functions with: 
                l(1) =   0
                l(2) =   0
                l(3) =   1

     atomic species   valence    mass     pseudopotential
        Si             4.00    28.08600     Si( 1.00)

     No symmetry found



   Cartesian axes

     site n.     atom                  positions (alat units)
         1           Si  tau(   1) = (   0.0625000   0.0625000   0.0625000  )
         2           Si  tau(   2) = (   0.3124999   0.3124999   0.0625000  )
         3           Si  tau(   3) = (   0.3124999   0.0625000   0.3124999  )
         4           Si  tau(   4) = (   0.0625000   0.3124999   0.3124999  )
         5           Si  tau(   5) = (   0.1874999   0.1874999   0.4374998  )
         6           Si  tau(   6) = (   0.0625000   0.0625000   0.5624998  )
         7           Si  tau(   7) = (   0.3124999   0.3124999   0.5624998  )
         8           Si  tau(   8) = (   0.3124999   0.0625000   0.8124997  )
         9           Si  tau(   9) = (   0.0625000   0.3124999   0.8124997  )
        10           Si  tau(  10) = (   0.1874999   0.1874999   0.9374996  )
        11           Si  tau(  11) = (   0.1874999   0.4374998   0.1874999  )
        12           Si  tau(  12) = (   0.0625000   0.5624998   0.0625000  )
        13           Si  tau(  13) = (   0.3124999   0.8124997   0.0625000  )
        14           Si  tau(  14) = (   0.3124999   0.5624998   0.3124999  )
        15           Si  tau(  15) = (   0.0625000   0.8124997   0.3124999  )
        16           Si  tau(  16) = (   0.1874999   0.6874997   0.4374998  )
        17           Si  tau(  17) = (   0.1874999   0.4374998   0.6874997  )
        18           Si  tau(  18) = (   0.0625000   0.5624998   0.5624998  )
        19           Si  tau(  19) = (   0.3124999   0.8124997   0.5624998  )
        20           Si  tau(  20) = (   0.3124999   0.5624998   0.8124997  )
        21           Si  tau(  21) = (   0.0625000   0.8124997   0.8124997  )
        22           Si  tau(  22) = (   0.1874999   0.6874997   0.9374996  )
        23           Si  tau(  23) = (   0.1874999   0.9374996   0.1874999  )
        24           Si  tau(  24) = (   0.1874999   0.9374996   0.6874997  )
        25           Si  tau(  25) = (   0.4374998   0.1874999   0.1874999  )
        26           Si  tau(  26) = (   0.5624998   0.0625000   0.0625000  )
        27           Si  tau(  27) = (   0.8124997   0.3124999   0.0625000  )
        28           Si  tau(  28) = (   0.8124997   0.0625000   0.3124999  )
        29           Si  tau(  29) = (   0.5624998   0.3124999   0.3124999  )
        30           Si  tau(  30) = (   0.6874997   0.1874999   0.4374998  )
        31           Si  tau(  31) = (   0.4374998   0.1874999   0.6874997  )
        32           Si  tau(  32) = (   0.5624998   0.0625000   0.5624998  )
        33           Si  tau(  33) = (   0.8124997   0.3124999   0.5624998  )
        34           Si  tau(  34) = (   0.8124997   0.0625000   0.8124997  )
        35           Si  tau(  35) = (   0.5624998   0.3124999   0.8124997  )
        36           Si  tau(  36) = (   0.6874997   0.1874999   0.9374996  )
        37           Si  tau(  37) = (   0.6874997   0.4374998   0.1874999  )
        38           Si  tau(  38) = (   0.4374998   0.6874997   0.1874999  )
        39           Si  tau(  39) = (   0.5624998   0.5624998   0.0625000  )
        40           Si  tau(  40) = (   0.8124997   0.8124997   0.0625000  )
        41           Si  tau(  41) = (   0.8124997   0.5624998   0.3124999  )
        42           Si  tau(  42) = (   0.5624998   0.8124997   0.3124999  )
        43           Si  tau(  43) = (   0.4374998   0.4374998   0.4374998  )
        44           Si  tau(  44) = (   0.6874997   0.6874997   0.4374998  )
        45           Si  tau(  45) = (   0.6874997   0.4374998   0.6874997  )
        46           Si  tau(  46) = (   0.4374998   0.6874997   0.6874997  )
        47           Si  tau(  47) = (   0.5624998   0.5624998   0.5624998  )
        48           Si  tau(  48) = (   0.8124997   0.8124997   0.5624998  )
        49           Si  tau(  49) = (   0.8124997   0.5624998   0.8124997  )
        50           Si  tau(  50) = (   0.5624998   0.8124997   0.8124997  )
        51           Si  tau(  51) = (   0.4374998   0.4374998   0.9374996  )
        52           Si  tau(  52) = (   0.6874997   0.6874997   0.9374996  )
        53           Si  tau(  53) = (   0.6874997   0.9374996   0.1874999  )
        54           Si  tau(  54) = (   0.4374998   0.9374996   0.4374998  )
        55           Si  tau(  55) = (   0.6874997   0.9374996   0.6874997  )
        56           Si  tau(  56) = (   0.4374998   0.9374996   0.9374996  )
        57           Si  tau(  57) = (   0.9374996   0.1874999   0.1874999  )
        58           Si  tau(  58) = (   0.9374996   0.1874999   0.6874997  )
        59           Si  tau(  59) = (   0.9374996   0.6874997   0.1874999  )
        60           Si  tau(  60) = (   0.9374996   0.4374998   0.4374998  )
        61           Si  tau(  61) = (   0.9374996   0.6874997   0.6874997  )
        62           Si  tau(  62) = (   0.9374996   0.4374998   0.9374996  )
        63           Si  tau(  63) = (   0.9374996   0.9374996   0.4374998  )
        64           Si  tau(  64) = (   0.9374996   0.9374996   0.9374996  )

     number of k points=     1
                       cart. coord. in units 2pi/alat
        k(    1) = (   0.0000000   0.0000000   0.0000000), wk =   2.0000000

     Dense  grid:   147954 G-vectors     FFT dimensions: (  90,  90,  90)

     Estimated max dynamical RAM per process >       8.39MB

     Estimated total allocated dynamical RAM >     671.60MB

     Initial potential from superposition of free atoms

     starting charge  255.96459, renormalised to  256.00000
     Starting wfc are  256 randomized atomic wfcs

     total cpu time spent up to now is        2.5 secs

     per-process dynamical memory:    22.9 Mb

     Self-consistent Calculation

     iteration #  1     ecut=    40.00 Ry     beta=0.70
     Davidson diagonalization with overlap
     ethr =  1.00E-02,  avg # of iterations =  4.0

     Threshold (ethr) on eigenvalues was too large:
     Diagonalizing with lowered threshold

     Davidson diagonalization with overlap
     ethr =  8.20E-04,  avg # of iterations =  2.0

     total cpu time spent up to now is        4.7 secs

     total energy              =    -503.13700163 Ry
     Harris-Foulkes estimate   =    -503.65409168 Ry
     estimated scf accuracy    <       2.12130252 Ry

     iteration #  2     ecut=    40.00 Ry     beta=0.70
     Davidson diagonalization with overlap
     ethr =  8.29E-04,  avg # of iterations =  1.0

     total cpu time spent up to now is        5.3 secs

     total energy              =    -503.22780588 Ry
     Harris-Foulkes estimate   =    -503.22495958 Ry
     estimated scf accuracy    <       0.08652375 Ry

     iteration #  3     ecut=    40.00 Ry     beta=0.70
     Davidson diagonalization with overlap
     ethr =  3.38E-05,  avg # of iterations =  6.0

     total cpu time spent up to now is        6.4 secs

     total energy              =    -503.23344215 Ry
     Harris-Foulkes estimate   =    -503.23305251 Ry
     estimated scf accuracy    <       0.00148868 Ry

     iteration #  4     ecut=    40.00 Ry     beta=0.70
     Davidson diagonalization with overlap
     ethr =  5.82E-07,  avg # of iterations =  3.0

     total cpu time spent up to now is        7.5 secs

     total energy              =    -503.23401764 Ry
     Harris-Foulkes estimate   =    -503.23405673 Ry
     estimated scf accuracy    <       0.00009993 Ry

     iteration #  5     ecut=    40.00 Ry     beta=0.70
     Davidson diagonalization with overlap
     ethr =  3.90E-08,  avg # of iterations =  3.0

     total cpu time spent up to now is        8.3 secs

     total energy              =    -503.23402603 Ry
     Harris-Foulkes estimate   =    -503.23408341 Ry
     estimated scf accuracy    <       0.00020737 Ry

     iteration #  6     ecut=    40.00 Ry     beta=0.70
     Davidson diagonalization with overlap
     ethr =  3.90E-08,  avg # of iterations =  2.0

     total cpu time spent up to now is        9.0 secs

     total energy              =    -503.23405437 Ry
     Harris-Foulkes estimate   =    -503.23405790 Ry
     estimated scf accuracy    <       0.00001009 Ry

     iteration #  7     ecut=    40.00 Ry     beta=0.70
     Davidson diagonalization with overlap
     ethr =  3.94E-09,  avg # of iterations =  2.0

     total cpu time spent up to now is        9.7 secs

     total energy              =    -503.23405564 Ry
     Harris-Foulkes estimate   =    -503.23405648 Ry
     estimated scf accuracy    <       0.00000204 Ry

     iteration #  8     ecut=    40.00 Ry     beta=0.70
     Davidson diagonalization with overlap
     ethr =  7.96E-10,  avg # of iterations =  2.0

     total cpu time spent up to now is       10.4 secs

     End of self-consistent calculation

          k = 0.0000 0.0000 0.0000 ( 18537 PWs)   bands (ev):

    -5.6355  -4.5538  -4.5538  -4.5537  -4.5537  -4.5537  -4.5537  -3.5904
    -3.5904  -3.5904  -3.5903  -3.5903  -3.5903  -3.5903  -3.5903  -3.5903
    -3.5903  -3.5902  -3.5902  -3.2977  -3.2977  -3.2976  -3.2976  -1.4922
    -1.4922  -1.4922  -1.4921  -1.4921  -1.4921  -1.3246  -1.3246  -1.3246
    -1.3246  -1.3246  -1.3246  -1.3246  -1.3246  -1.3246  -1.3245  -1.3245
    -1.3245  -0.6731  -0.6730  -0.6730  -0.6730   0.8344   0.8344   0.8344
     0.8344   0.8344   0.8344   0.8344   0.8344   0.8344   0.8344   0.8345
     0.8345   2.4162   2.4162   2.4162   2.4162   2.4162   2.4162   2.4162
     2.4162   2.4162   2.4162   2.4162   2.4163   2.5204   2.5204   2.5204
     2.5204   2.5204   2.5204   2.5204   2.5204   2.5204   2.5204   2.5204
     2.5205   2.7993   2.7994   2.7994   2.7994   2.7994   2.7994   3.4178
     3.4178   3.4178   3.4178   3.4178   3.4178   4.3801   4.3801   4.3801
     4.3801   4.3801   4.3801   4.3801   4.3801   4.3802   4.3802   4.3802
     4.3802   4.9433   4.9433   4.9433   4.9433   4.9433   4.9434   4.9434
     4.9434   4.9434   4.9434   4.9434   4.9434   5.0730   5.0730   5.0730
     5.0730   5.0730   5.0730   5.0731   5.0731   6.2720   6.2720   6.2720
     6.9889   6.9889   6.9889   6.9889   6.9889   6.9889   7.4079   7.4079
     7.4079   7.4079   7.4079   7.4079   7.8586   7.8587   7.8587   7.8587
     8.7316   8.7316   8.7316   8.7316   8.7316   8.7316   8.7316   8.7316
     8.7317   8.7317   8.7317   8.7317   8.8256   8.8256   8.8256   9.4089
     9.4089   9.4089   9.4089   9.4089   9.4089   9.5989   9.5989   9.5989
     9.5989   9.5989   9.5989   9.5989   9.5990   9.7389  10.5344  10.5344
    10.5344  10.5344  10.5344  10.5344  10.5344  10.5344  10.5344  10.5344
    10.5344  10.5344  11.0522  11.0523  11.0523  11.0523  11.0523  11.0523
    11.0523  11.0523  11.0523  11.0523  11.0523  11.0523  11.2847  11.2847
    11.2847  11.2847  11.2847  11.2847  11.2847  11.2847  11.2847  11.2847
    11.2847  11.2847  11.4099  11.4099  11.4099  11.4099  11.4099  11.4099
    11.4099  11.4099  11.4099  11.4100  11.4100  11.4100  12.0223  12.0223
    12.0223  12.0223  12.0223  12.0223  12.0223  12.0223  12.0223  12.0223
    12.0223  12.0223  12.4372  12.4372  12.4372  12.4372  12.4372  12.4372
    12.4372  12.4372  12.4372  12.4372  12.4372  12.4372  12.7039  12.7039
    12.7039  12.7039

     highest occupied, lowest unoccupied level (ev):     6.2720    6.9889

!    total energy              =    -503.23405586 Ry
     Harris-Foulkes estimate   =    -503.23405591 Ry
     estimated scf accuracy    <       0.00000008 Ry

     The total energy is the sum of the following terms:

     one-electron contribution =     152.65369030 Ry
     hartree contribution      =      35.92405954 Ry
     xc contribution           =    -154.39157994 Ry
     ewald contribution        =    -537.42022576 Ry

     convergence has been achieved in   8 iterations

     Writing output data file si-rrkj.save
 
     init_run     :      0.85s CPU      1.11s WALL (       1 calls)
     electrons    :      7.80s CPU      8.02s WALL (       1 calls)

     Called by init_run:
     wfcinit      :      0.34s CPU      0.41s WALL (       1 calls)
     potinit      :      0.11s CPU      0.15s WALL (       1 calls)

     Called by electrons:
     c_bands      :      6.89s CPU      6.99s WALL (       9 calls)
     sum_band     :      0.60s CPU      0.62s WALL (       9 calls)
     v_of_rho     :      0.26s CPU      0.34s WALL (       9 calls)
     mix_rho      :      0.03s CPU      0.05s WALL (       9 calls)

     Called by c_bands:
     init_us_2    :      0.00s CPU      0.02s WALL (      19 calls)
     regterg      :      6.85s CPU      6.95s WALL (       9 calls)

     Called by sum_band:

     Called by *egterg:
     h_psi        :      3.09s CPU      3.13s WALL (      35 calls)
     g_psi        :      0.00s CPU      0.00s WALL (      25 calls)
     rdiaghg      :      3.27s CPU      3.36s WALL (      33 calls)

     Called by h_psi:
     h_psi:pot    :      3.08s CPU      3.12s WALL (      35 calls)
     h_psi:calbec :      0.14s CPU      0.15s WALL (      35 calls)
     vloc_psi     :      2.86s CPU      2.87s WALL (      35 calls)
     add_vuspsi   :      0.08s CPU      0.09s WALL (      35 calls)

     General routines
     calbec       :      0.14s CPU      0.15s WALL (      35 calls)
     fft          :      0.23s CPU      0.40s WALL (     100 calls)
     fftw         :      3.40s CPU      3.30s WALL (    6585 calls)
 
     Parallel routines
     fft_scatter  :      3.48s CPU      2.50s WALL (    6685 calls)
 
     PWSCF        :     9.74s CPU        11.23s WALL

 
   This run was terminated on:  16:34:40  11Sep2017            

=------------------------------------------------------------------------------=
   JOB DONE.
=------------------------------------------------------------------------------=
