
     Program PWSCF v.6.1 (svn rev. 13369) starts on 18Apr2018 at 21:15:29 

     This program is part of the open-source Quantum ESPRESSO suite
     for quantum simulation of materials; please cite
         "P. Giannozzi et al., J. Phys.:Condens. Matter 21 395502 (2009);
          URL http://www.quantum-espresso.org", 
     in publications or presentations arising from this work. More details at
     http://www.quantum-espresso.org/quote

     Parallel version (MPI & OpenMP), running on      80 processor cores
     Number of MPI processes:                80
     Threads/MPI process:                     1
     R & G space division:  proc/nbgrp/npool/nimage =      80
     Waiting for input...
     Reading input from standard input

     Current dimensions of program PWSCF are:
     Max number of different atomic species (ntypx) = 10
     Max number of k-points (npk) =  40000
     Max angular momentum in pseudopotentials (lmaxx) =  3

     gamma-point specific algorithms are used

     Subspace diagonalization in iterative solution of the eigenvalue problem:
     one sub-group per band group will be used
     scalapack distributed-memory algorithm (size of sub-group:  6*  6 procs)

 
     Parallelization info
     --------------------
     sticks:   dense  smooth     PW     G-vecs:    dense   smooth      PW
     Min         303     303     75                35728    35728    4455
     Max         306     306     80                35736    35736    4472
     Sum       24345   24345   6093              2858633  2858633  357213
 


     bravais-lattice index     =            1
     lattice parameter (alat)  =      30.0000  a.u.
     unit-cell volume          =   27000.0000 (a.u.)^3
     number of atoms/cell      =            2
     number of atomic types    =            2
     number of electrons       =        10.00
     number of Kohn-Sham states=          100
     kinetic-energy cutoff     =      85.0000  Ry
     charge density cutoff     =     340.0000  Ry
     convergence threshold     =      1.0E-06
     mixing beta               =       0.4000
     number of iterations used =            8  plain     mixing
     Exchange-correlation      = PBE ( 1  4  3  4 0 0)

     celldm(1)=  30.000000  celldm(2)=   0.000000  celldm(3)=   0.000000
     celldm(4)=   0.000000  celldm(5)=   0.000000  celldm(6)=   0.000000

     crystal axes: (cart. coord. in units of alat)
               a(1) = (   1.000000   0.000000   0.000000 )  
               a(2) = (   0.000000   1.000000   0.000000 )  
               a(3) = (   0.000000   0.000000   1.000000 )  

     reciprocal axes: (cart. coord. in units 2 pi/alat)
               b(1) = (  1.000000  0.000000  0.000000 )  
               b(2) = (  0.000000  1.000000  0.000000 )  
               b(3) = (  0.000000  0.000000  1.000000 )  


     PseudoPot. # 1 for Si read from file:
     ~/PseudoPotential/upf/Si_ONCV_PBE-1.0.upf
     MD5 check sum: Not computed, couldn't open file
     Pseudo is Norm-conserving, Zval =  4.0
     Generated using ONCVPSP code by D. R. Hamann
     Using radial grid of  602 points,  4 beta functions with: 
                l(1) =   0
                l(2) =   0
                l(3) =   1
                l(4) =   1

     PseudoPot. # 2 for O  read from file:
     ~/PseudoPotential/upf/O_ONCV_PBE-1.0.upf
     MD5 check sum: Not computed, couldn't open file
     Pseudo is Norm-conserving, Zval =  6.0
     Generated using ONCVPSP code by D. R. Hamann
     Using radial grid of  602 points,  4 beta functions with: 
                l(1) =   0
                l(2) =   0
                l(3) =   1
                l(4) =   1

     atomic species   valence    mass     pseudopotential
        Si             4.00     1.00000     Si( 1.00)
        O              6.00     1.00000     O ( 1.00)

     No symmetry found



   Cartesian axes

     site n.     atom                  positions (alat units)
         1           Si  tau(   1) = (   0.0000000   0.0000000   0.0353282  )
         2           O   tau(   2) = (   0.0000000   0.0000000  -0.0618243  )

     number of k points=     1
                       cart. coord. in units 2pi/alat
        k(    1) = (   0.0000000   0.0000000   0.0000000), wk =   2.0000000

     Dense  grid:  1429317 G-vectors     FFT dimensions: ( 180, 180, 180)

     Estimated max dynamical RAM per process >      49.07MB

     Estimated total allocated dynamical RAM >    3925.74MB

     Initial potential from superposition of free atoms
     Check: negative starting charge=   -0.002045

     starting charge    9.95282, renormalised to   10.00000

     negative rho (up, down):  2.055E-03 0.000E+00
     Starting wfc are random

     total cpu time spent up to now is        2.7 secs

     per-process dynamical memory:    66.9 Mb

     Self-consistent Calculation

     iteration #  1     ecut=    85.00 Ry     beta=0.40
     Davidson diagonalization with overlap
     ethr =  1.00E-02,  avg # of iterations = 13.0

     negative rho (up, down):  7.339E-04 0.000E+00

     total cpu time spent up to now is        9.5 secs

     total energy              =     -39.51849496 Ry
     Harris-Foulkes estimate   =     -39.95364225 Ry
     estimated scf accuracy    <       0.77379790 Ry

     iteration #  2     ecut=    85.00 Ry     beta=0.40
     Davidson diagonalization with overlap
     ethr =  7.74E-03,  avg # of iterations =  2.0

     negative rho (up, down):  4.901E-04 0.000E+00

     total cpu time spent up to now is       11.1 secs

     total energy              =     -39.64492317 Ry
     Harris-Foulkes estimate   =     -39.82655132 Ry
     estimated scf accuracy    <       0.53579549 Ry

     iteration #  3     ecut=    85.00 Ry     beta=0.40
     Davidson diagonalization with overlap
     ethr =  5.36E-03,  avg # of iterations =  1.0

     negative rho (up, down):  1.328E-04 0.000E+00

     total cpu time spent up to now is       12.6 secs

     total energy              =     -39.73592885 Ry
     Harris-Foulkes estimate   =     -39.75540034 Ry
     estimated scf accuracy    <       0.04198200 Ry

     iteration #  4     ecut=    85.00 Ry     beta=0.40
     Davidson diagonalization with overlap
     ethr =  4.20E-04,  avg # of iterations =  1.0

     negative rho (up, down):  3.882E-05 0.000E+00

     total cpu time spent up to now is       14.1 secs

     total energy              =     -39.74427995 Ry
     Harris-Foulkes estimate   =     -39.74630849 Ry
     estimated scf accuracy    <       0.00719371 Ry

     iteration #  5     ecut=    85.00 Ry     beta=0.40
     Davidson diagonalization with overlap
     ethr =  7.19E-05,  avg # of iterations =  5.0

     negative rho (up, down):  5.237E-06 0.000E+00

     total cpu time spent up to now is       15.9 secs

     total energy              =     -39.74521114 Ry
     Harris-Foulkes estimate   =     -39.74522970 Ry
     estimated scf accuracy    <       0.00010560 Ry

     iteration #  6     ecut=    85.00 Ry     beta=0.40
     Davidson diagonalization with overlap
     ethr =  1.06E-06,  avg # of iterations = 10.0

     negative rho (up, down):  4.649E-06 0.000E+00

     total cpu time spent up to now is       18.9 secs

     total energy              =     -39.74523900 Ry
     Harris-Foulkes estimate   =     -39.74525682 Ry
     estimated scf accuracy    <       0.00004586 Ry

     iteration #  7     ecut=    85.00 Ry     beta=0.40
     Davidson diagonalization with overlap
     ethr =  4.59E-07,  avg # of iterations =  1.0

     negative rho (up, down):  9.977E-08 0.000E+00

     total cpu time spent up to now is       20.4 secs

     total energy              =     -39.74524562 Ry
     Harris-Foulkes estimate   =     -39.74524514 Ry
     estimated scf accuracy    <       0.00000174 Ry

     iteration #  8     ecut=    85.00 Ry     beta=0.40
     Davidson diagonalization with overlap
     ethr =  1.74E-08,  avg # of iterations =  2.0

     negative rho (up, down):  7.075E-08 0.000E+00

     total cpu time spent up to now is       22.0 secs

     total energy              =     -39.74524522 Ry
     Harris-Foulkes estimate   =     -39.74524635 Ry
     estimated scf accuracy    <       0.00000346 Ry

     iteration #  9     ecut=    85.00 Ry     beta=0.40
     Davidson diagonalization with overlap
     ethr =  1.74E-08,  avg # of iterations =  1.0

     total cpu time spent up to now is       23.4 secs

     End of self-consistent calculation

          k = 0.0000 0.0000 0.0000 (178607 PWs)   bands (ev):

   -23.1477 -10.6966  -7.8757  -7.8757  -7.3849  -2.8906  -2.8906  -0.4349
    -0.1592   0.3828   0.5388   0.5389   0.5844   0.6381   0.7315   1.0083
     1.0967   1.0967   1.1005   1.1234   1.1234   1.1580   1.2214   1.2361
     1.2438   1.2438   1.3989   1.6299   1.7184   1.7184   1.7770   1.7847
     1.7847   1.7871   1.8088   1.9310   2.2396   2.3088   2.3214   2.3214
     2.4253   2.4606   2.6318   2.6724   2.6724   2.8125   2.8670   2.8774
     2.8774   2.9247   2.9247   2.9557   2.9655   2.9655   2.9905   3.0071
     3.0071   3.0107   3.0235   3.0419   3.0491   3.0491   3.0609   3.0684
     3.2110   3.2341   3.3517   3.3517   3.3840   3.4216   3.5227   3.5228
     3.5609   3.5628   3.5758   3.5758   3.5776   3.5916   3.5916   3.5928
     3.6035   3.6040   3.6041   3.6205   3.6218   3.6218   3.6265   3.6864
     3.9974   4.0573   4.1068   4.4403   4.4403   4.6160   4.6483   4.6483
     4.6871   4.7949   4.7949   4.7950

     highest occupied, lowest unoccupied level (ev):    -7.3849   -2.8906

!    total energy              =     -39.74524574 Ry
     Harris-Foulkes estimate   =     -39.74524575 Ry
     estimated scf accuracy    <          9.5E-09 Ry

     The total energy is the sum of the following terms:

     one-electron contribution =     -78.78386324 Ry
     hartree contribution      =      41.12012111 Ry
     xc contribution           =      -9.12487878 Ry
     ewald contribution        =       7.04337517 Ry

     charge density inside the Wigner-Seitz cell:   10.00000000

     reference position (x0):         0.00000000    0.00000000   -0.68889891 bohr

     Dipole moments (with respect to x0):
     Elect   0.0000   0.0000   1.2082 au (Ha),   0.0000   0.0000   3.0709 Debye
     Ionic   0.0000   0.0000  -0.0000 au (Ha),   0.0000   0.0000  -0.0000 Debye
     Total   0.0000   0.0000   1.2082 au (Ha),   0.0000   0.0000   3.0709 Debye

     Electrons quadrupole moment        -55.43709619 a.u. (Ha)
          Ions quadrupole moment         20.38737631 a.u. (Ha)
         Total quadrupole moment        -35.04971988 a.u. (Ha)

     *********    MAKOV-PAYNE CORRECTION    *********

     Makov-Payne correction with Madelung constant =   2.8373

     Makov-Payne correction     0.00000000 Ry =  0.000 eV (1st order, 1/a0)
                                0.00022647 Ry =  0.003 eV (2nd order, 1/a0^3)
                                0.00022647 Ry =  0.003 eV (total)

!    Total+Makov-Payne energy  =     -39.74501927 Ry
     Corrected vacuum level    =       0.07407211 eV

     convergence has been achieved in   9 iterations

     Writing output data file ./sio.save
 
     init_run     :      1.55s CPU      1.82s WALL (       1 calls)
     electrons    :     20.81s CPU     21.25s WALL (       1 calls)

     Called by init_run:
     wfcinit      :      0.55s CPU      0.62s WALL (       1 calls)
     potinit      :      0.19s CPU      0.24s WALL (       1 calls)

     Called by electrons:
     c_bands      :     17.15s CPU     17.25s WALL (       9 calls)
     sum_band     :      2.34s CPU      2.36s WALL (       9 calls)
     v_of_rho     :      1.01s CPU      1.06s WALL (      10 calls)
     mix_rho      :      0.15s CPU      0.16s WALL (       9 calls)

     Called by c_bands:
     init_us_2    :      0.01s CPU      0.02s WALL (      19 calls)
     regterg      :     17.12s CPU     17.22s WALL (       9 calls)

     Called by sum_band:

     Called by *egterg:
     h_psi        :     13.25s CPU     13.32s WALL (      46 calls)
     g_psi        :      0.03s CPU      0.03s WALL (      36 calls)
     rdiaghg      :      1.76s CPU      1.81s WALL (      45 calls)

     Called by h_psi:
     h_psi:pot    :     13.15s CPU     13.21s WALL (      46 calls)
     h_psi:calbec :      0.09s CPU      0.09s WALL (      46 calls)
     vloc_psi     :     13.04s CPU     13.08s WALL (      46 calls)
     add_vuspsi   :      0.02s CPU      0.04s WALL (      46 calls)

     General routines
     calbec       :      0.09s CPU      0.09s WALL (      46 calls)
     fft          :      1.05s CPU      1.18s WALL (     109 calls)
     fftw         :     14.34s CPU     14.24s WALL (    3292 calls)
 
     Parallel routines
     fft_scatter  :     11.65s CPU     11.38s WALL (    3401 calls)
 
     PWSCF        :    24.67s CPU        29.48s WALL

 
   This run was terminated on:  21:15:59  18Apr2018            

=------------------------------------------------------------------------------=
   JOB DONE.
=------------------------------------------------------------------------------=
