
     Program PWSCF v.6.1 (svn rev. 13369) starts on 18Apr2018 at 21: 8:39 

     This program is part of the open-source Quantum ESPRESSO suite
     for quantum simulation of materials; please cite
         "P. Giannozzi et al., J. Phys.:Condens. Matter 21 395502 (2009);
          URL http://www.quantum-espresso.org", 
     in publications or presentations arising from this work. More details at
     http://www.quantum-espresso.org/quote

     Parallel version (MPI & OpenMP), running on      80 processor cores
     Number of MPI processes:                80
     Threads/MPI process:                     1
     R & G space division:  proc/nbgrp/npool/nimage =      80
     Waiting for input...
     Reading input from standard input

     Current dimensions of program PWSCF are:
     Max number of different atomic species (ntypx) = 10
     Max number of k-points (npk) =  40000
     Max angular momentum in pseudopotentials (lmaxx) =  3

     gamma-point specific algorithms are used

     Subspace diagonalization in iterative solution of the eigenvalue problem:
     one sub-group per band group will be used
     scalapack distributed-memory algorithm (size of sub-group:  6*  6 procs)

 
     Parallelization info
     --------------------
     sticks:   dense  smooth     PW     G-vecs:    dense   smooth      PW
     Min         303     303     75                35728    35728    4455
     Max         306     306     80                35736    35736    4472
     Sum       24345   24345   6093              2858633  2858633  357213
 


     bravais-lattice index     =            1
     lattice parameter (alat)  =      30.0000  a.u.
     unit-cell volume          =   27000.0000 (a.u.)^3
     number of atoms/cell      =            2
     number of atomic types    =            1
     number of electrons       =         6.00
     number of Kohn-Sham states=          100
     kinetic-energy cutoff     =      85.0000  Ry
     charge density cutoff     =     340.0000  Ry
     convergence threshold     =      1.0E-06
     mixing beta               =       0.4000
     number of iterations used =            8  plain     mixing
     Exchange-correlation      = PBE ( 1  4  3  4 0 0)

     celldm(1)=  30.000000  celldm(2)=   0.000000  celldm(3)=   0.000000
     celldm(4)=   0.000000  celldm(5)=   0.000000  celldm(6)=   0.000000

     crystal axes: (cart. coord. in units of alat)
               a(1) = (   1.000000   0.000000   0.000000 )  
               a(2) = (   0.000000   1.000000   0.000000 )  
               a(3) = (   0.000000   0.000000   1.000000 )  

     reciprocal axes: (cart. coord. in units 2 pi/alat)
               b(1) = (  1.000000  0.000000  0.000000 )  
               b(2) = (  0.000000  1.000000  0.000000 )  
               b(3) = (  0.000000  0.000000  1.000000 )  


     PseudoPot. # 1 for Li read from file:
     ~/PseudoPotential/upf/Li_ONCV_PBE-1.0.upf
     MD5 check sum: Not computed, couldn't open file
     Pseudo is Norm-conserving, Zval =  3.0
     Generated using ONCVPSP code by D. R. Hamann
     Using radial grid of  602 points,  4 beta functions with: 
                l(1) =   0
                l(2) =   0
                l(3) =   1
                l(4) =   1

     atomic species   valence    mass     pseudopotential
        Li             3.00     1.00000     Li( 1.00)

     No symmetry found



   Cartesian axes

     site n.     atom                  positions (alat units)
         1           Li  tau(   1) = (   0.0000000   0.0000000   0.0873387  )
         2           Li  tau(   2) = (   0.0000000   0.0000000  -0.0873387  )

     number of k points=     1
                       cart. coord. in units 2pi/alat
        k(    1) = (   0.0000000   0.0000000   0.0000000), wk =   2.0000000

     Dense  grid:  1429317 G-vectors     FFT dimensions: ( 180, 180, 180)

     Estimated max dynamical RAM per process >      49.07MB

     Estimated total allocated dynamical RAM >    3925.74MB

     Initial potential from superposition of free atoms
     Check: negative starting charge=   -0.005190

     starting charge    5.77449, renormalised to    6.00000

     negative rho (up, down):  5.393E-03 0.000E+00
     Starting wfc are random

     total cpu time spent up to now is        2.7 secs

     per-process dynamical memory:    64.4 Mb

     Self-consistent Calculation

     iteration #  1     ecut=    85.00 Ry     beta=0.40
     Davidson diagonalization with overlap
     ethr =  1.00E-02,  avg # of iterations = 12.0

     negative rho (up, down):  1.054E-03 0.000E+00

     total cpu time spent up to now is        9.3 secs

     total energy              =     -28.32241890 Ry
     Harris-Foulkes estimate   =     -28.33605703 Ry
     estimated scf accuracy    <       0.06283405 Ry

     iteration #  2     ecut=    85.00 Ry     beta=0.40
     Davidson diagonalization with overlap
     ethr =  1.05E-03,  avg # of iterations =  1.0

     negative rho (up, down):  1.914E-04 0.000E+00

     total cpu time spent up to now is       10.8 secs

     total energy              =     -28.32021658 Ry
     Harris-Foulkes estimate   =     -28.32431323 Ry
     estimated scf accuracy    <       0.01306084 Ry

     iteration #  3     ecut=    85.00 Ry     beta=0.40
     Davidson diagonalization with overlap
     ethr =  2.18E-04,  avg # of iterations =  3.0

     negative rho (up, down):  1.756E-05 0.000E+00

     total cpu time spent up to now is       12.3 secs

     total energy              =     -28.32081356 Ry
     Harris-Foulkes estimate   =     -28.32109414 Ry
     estimated scf accuracy    <       0.00051209 Ry

     iteration #  4     ecut=    85.00 Ry     beta=0.40
     Davidson diagonalization with overlap
     ethr =  8.53E-06,  avg # of iterations =  9.0

     negative rho (up, down):  5.884E-07 0.000E+00

     total cpu time spent up to now is       15.3 secs

     total energy              =     -28.32090202 Ry
     Harris-Foulkes estimate   =     -28.32090833 Ry
     estimated scf accuracy    <       0.00004379 Ry

     iteration #  5     ecut=    85.00 Ry     beta=0.40
     Davidson diagonalization with overlap
     ethr =  7.30E-07,  avg # of iterations =  2.0

     total cpu time spent up to now is       16.9 secs

     total energy              =     -28.32090543 Ry
     Harris-Foulkes estimate   =     -28.32091383 Ry
     estimated scf accuracy    <       0.00002604 Ry

     iteration #  6     ecut=    85.00 Ry     beta=0.40
     Davidson diagonalization with overlap
     ethr =  4.34E-07,  avg # of iterations =  1.0

     total cpu time spent up to now is       18.3 secs

     End of self-consistent calculation

          k = 0.0000 0.0000 0.0000 (178607 PWs)   bands (ev):

   -50.9084 -50.9005  -3.1511  -1.7730  -1.2185  -1.2185  -0.8921  -0.0391
     0.0791   0.0791   0.3579   0.3629   0.4818   0.4818   0.5096   0.6904
     0.7095   0.9586   0.9586   0.9839   0.9882   1.0079   1.1426   1.1709
     1.1709   1.2485   1.2485   1.4014   1.4041   1.4509   1.5223   1.6369
     1.6370   1.6620   1.7548   1.7834   1.7835   2.1369   2.1370   2.1570
     2.1645   2.2787   2.3624   2.3820   2.3820   2.4560   2.4974   2.5261
     2.5985   2.5985   2.6518   2.6519   2.7377   2.7444   2.7837   2.8194
     2.8194   2.8265   2.8648   2.8659   2.8933   2.9247   2.9248   3.0345
     3.0346   3.0412   3.0840   3.2402   3.2930   3.3024   3.3025   3.3091
     3.3091   3.3162   3.3242   3.3571   3.3572   3.3587   3.3596   3.3711
     3.3712   3.3715   3.3828   3.4774   3.7124   3.7124   3.7916   3.7916
     3.9055   4.1030   4.1030   4.1280   4.1996   4.2033   4.2044   4.2271
     4.3718   4.4468   4.5331   4.5331

     highest occupied, lowest unoccupied level (ev):    -3.1511   -1.7730

!    total energy              =     -28.32090869 Ry
     Harris-Foulkes estimate   =     -28.32090838 Ry
     estimated scf accuracy    <       0.00000013 Ry

     The total energy is the sum of the following terms:

     one-electron contribution =     -36.86110615 Ry
     hartree contribution      =      14.75647783 Ry
     xc contribution           =      -6.28651606 Ry
     ewald contribution        =       0.07023569 Ry

     charge density inside the Wigner-Seitz cell:    6.00000000

     reference position (x0):         0.00000000    0.00000000    0.00000000 bohr

     Dipole moments (with respect to x0):
     Elect   0.0000   0.0000   0.0001 au (Ha),   0.0000   0.0001   0.0001 Debye
     Ionic   0.0000   0.0000   0.0000 au (Ha),   0.0000   0.0000   0.0000 Debye
     Total   0.0000   0.0000   0.0001 au (Ha),   0.0000   0.0001   0.0001 Debye

     Electrons quadrupole moment        -67.03600246 a.u. (Ha)
          Ions quadrupole moment         41.19149265 a.u. (Ha)
         Total quadrupole moment        -25.84450981 a.u. (Ha)

     *********    MAKOV-PAYNE CORRECTION    *********

     Makov-Payne correction with Madelung constant =   2.8373

     Makov-Payne correction     0.00000000 Ry =  0.000 eV (1st order, 1/a0)
                                0.00000000 Ry =  0.000 eV (2nd order, 1/a0^3)
                                0.00000000 Ry =  0.000 eV (total)

!    Total+Makov-Payne energy  =     -28.32090869 Ry
     Corrected vacuum level    =       0.05448520 eV

     convergence has been achieved in   6 iterations

     Writing output data file ./li2.save
 
     init_run     :      1.42s CPU      1.69s WALL (       1 calls)
     electrons    :     15.81s CPU     16.00s WALL (       1 calls)

     Called by init_run:
     wfcinit      :      0.56s CPU      0.60s WALL (       1 calls)
     potinit      :      0.18s CPU      0.24s WALL (       1 calls)

     Called by electrons:
     c_bands      :     13.29s CPU     13.36s WALL (       6 calls)
     sum_band     :      1.56s CPU      1.57s WALL (       6 calls)
     v_of_rho     :      0.71s CPU      0.76s WALL (       7 calls)
     mix_rho      :      0.09s CPU      0.09s WALL (       6 calls)

     Called by c_bands:
     init_us_2    :      0.00s CPU      0.01s WALL (      13 calls)
     regterg      :     13.27s CPU     13.34s WALL (       6 calls)

     Called by sum_band:

     Called by *egterg:
     h_psi        :     10.25s CPU     10.29s WALL (      35 calls)
     g_psi        :      0.02s CPU      0.02s WALL (      28 calls)
     rdiaghg      :      1.44s CPU      1.47s WALL (      34 calls)

     Called by h_psi:
     h_psi:pot    :     10.16s CPU     10.20s WALL (      35 calls)
     h_psi:calbec :      0.07s CPU      0.07s WALL (      35 calls)
     vloc_psi     :     10.08s CPU     10.10s WALL (      35 calls)
     add_vuspsi   :      0.02s CPU      0.03s WALL (      35 calls)

     General routines
     calbec       :      0.07s CPU      0.07s WALL (      35 calls)
     fft          :      0.74s CPU      0.88s WALL (      76 calls)
     fftw         :     10.91s CPU     10.75s WALL (    2512 calls)
 
     Parallel routines
     fft_scatter  :      8.82s CPU      8.53s WALL (    2588 calls)
 
     PWSCF        :    19.50s CPU        22.56s WALL

 
   This run was terminated on:  21: 9: 2  18Apr2018            

=------------------------------------------------------------------------------=
   JOB DONE.
=------------------------------------------------------------------------------=
