
     Program PWSCF v.6.1 (svn rev. 13369) starts on 18Apr2018 at 21: 2:46 

     This program is part of the open-source Quantum ESPRESSO suite
     for quantum simulation of materials; please cite
         "P. Giannozzi et al., J. Phys.:Condens. Matter 21 395502 (2009);
          URL http://www.quantum-espresso.org", 
     in publications or presentations arising from this work. More details at
     http://www.quantum-espresso.org/quote

     Parallel version (MPI & OpenMP), running on      80 processor cores
     Number of MPI processes:                80
     Threads/MPI process:                     1
     R & G space division:  proc/nbgrp/npool/nimage =      80
     Waiting for input...
     Reading input from standard input

     Current dimensions of program PWSCF are:
     Max number of different atomic species (ntypx) = 10
     Max number of k-points (npk) =  40000
     Max angular momentum in pseudopotentials (lmaxx) =  3

     gamma-point specific algorithms are used

     Subspace diagonalization in iterative solution of the eigenvalue problem:
     one sub-group per band group will be used
     scalapack distributed-memory algorithm (size of sub-group:  6*  6 procs)

 
     Parallelization info
     --------------------
     sticks:   dense  smooth     PW     G-vecs:    dense   smooth      PW
     Min         303     303     75                35728    35728    4455
     Max         306     306     80                35736    35736    4472
     Sum       24345   24345   6093              2858633  2858633  357213
 


     bravais-lattice index     =            1
     lattice parameter (alat)  =      30.0000  a.u.
     unit-cell volume          =   27000.0000 (a.u.)^3
     number of atoms/cell      =            2
     number of atomic types    =            2
     number of electrons       =        10.00
     number of Kohn-Sham states=          100
     kinetic-energy cutoff     =      85.0000  Ry
     charge density cutoff     =     340.0000  Ry
     convergence threshold     =      1.0E-06
     mixing beta               =       0.4000
     number of iterations used =            8  plain     mixing
     Exchange-correlation      = PBE ( 1  4  3  4 0 0)

     celldm(1)=  30.000000  celldm(2)=   0.000000  celldm(3)=   0.000000
     celldm(4)=   0.000000  celldm(5)=   0.000000  celldm(6)=   0.000000

     crystal axes: (cart. coord. in units of alat)
               a(1) = (   1.000000   0.000000   0.000000 )  
               a(2) = (   0.000000   1.000000   0.000000 )  
               a(3) = (   0.000000   0.000000   1.000000 )  

     reciprocal axes: (cart. coord. in units 2 pi/alat)
               b(1) = (  1.000000  0.000000  0.000000 )  
               b(2) = (  0.000000  1.000000  0.000000 )  
               b(3) = (  0.000000  0.000000  1.000000 )  


     PseudoPot. # 1 for O  read from file:
     ~/PseudoPotential/upf/O_ONCV_PBE-1.0.upf
     MD5 check sum: Not computed, couldn't open file
     Pseudo is Norm-conserving, Zval =  6.0
     Generated using ONCVPSP code by D. R. Hamann
     Using radial grid of  602 points,  4 beta functions with: 
                l(1) =   0
                l(2) =   0
                l(3) =   1
                l(4) =   1

     PseudoPot. # 2 for C  read from file:
     ~/PseudoPotential/upf/C_ONCV_PBE-1.0.upf
     MD5 check sum: Not computed, couldn't open file
     Pseudo is Norm-conserving, Zval =  4.0
     Generated using ONCVPSP code by D. R. Hamann
     Using radial grid of  602 points,  4 beta functions with: 
                l(1) =   0
                l(2) =   0
                l(3) =   1
                l(4) =   1

     atomic species   valence    mass     pseudopotential
        O              6.00     1.00000     O ( 1.00)
        C              4.00     1.00000     C ( 1.00)

     No symmetry found



   Cartesian axes

     site n.     atom                  positions (alat units)
         1           O   tau(   1) = (   0.0000000   0.0000000   0.0310547  )
         2           C   tau(   2) = (   0.0000000   0.0000000  -0.0414062  )

     number of k points=     1
                       cart. coord. in units 2pi/alat
        k(    1) = (   0.0000000   0.0000000   0.0000000), wk =   2.0000000

     Dense  grid:  1429317 G-vectors     FFT dimensions: ( 180, 180, 180)

     Estimated max dynamical RAM per process >      49.07MB

     Estimated total allocated dynamical RAM >    3925.74MB

     Initial potential from superposition of free atoms
     Check: negative starting charge=   -0.000293

     starting charge    9.99208, renormalised to   10.00000

     negative rho (up, down):  2.930E-04 0.000E+00
     Starting wfc are random

     total cpu time spent up to now is        2.8 secs

     per-process dynamical memory:    66.9 Mb

     Self-consistent Calculation

     iteration #  1     ecut=    85.00 Ry     beta=0.40
     Davidson diagonalization with overlap
     ethr =  1.00E-02,  avg # of iterations = 14.0

     negative rho (up, down):  9.105E-05 0.000E+00

     total cpu time spent up to now is        9.7 secs

     total energy              =     -43.23751757 Ry
     Harris-Foulkes estimate   =     -43.31198450 Ry
     estimated scf accuracy    <       0.16998836 Ry

     iteration #  2     ecut=    85.00 Ry     beta=0.40
     Davidson diagonalization with overlap
     ethr =  1.70E-03,  avg # of iterations =  1.0

     negative rho (up, down):  4.882E-05 0.000E+00

     total cpu time spent up to now is       11.2 secs

     total energy              =     -43.25177408 Ry
     Harris-Foulkes estimate   =     -43.26837743 Ry
     estimated scf accuracy    <       0.04321832 Ry

     iteration #  3     ecut=    85.00 Ry     beta=0.40
     Davidson diagonalization with overlap
     ethr =  4.32E-04,  avg # of iterations =  1.0

     negative rho (up, down):  1.306E-05 0.000E+00

     total cpu time spent up to now is       12.7 secs

     total energy              =     -43.25622801 Ry
     Harris-Foulkes estimate   =     -43.25948549 Ry
     estimated scf accuracy    <       0.00996977 Ry

     iteration #  4     ecut=    85.00 Ry     beta=0.40
     Davidson diagonalization with overlap
     ethr =  9.97E-05,  avg # of iterations =  5.0

     negative rho (up, down):  1.258E-06 0.000E+00

     total cpu time spent up to now is       14.4 secs

     total energy              =     -43.25687737 Ry
     Harris-Foulkes estimate   =     -43.25705186 Ry
     estimated scf accuracy    <       0.00072099 Ry

     iteration #  5     ecut=    85.00 Ry     beta=0.40
     Davidson diagonalization with overlap
     ethr =  7.21E-06,  avg # of iterations =  9.0

     negative rho (up, down):  4.974E-07 0.000E+00

     total cpu time spent up to now is       16.6 secs

     total energy              =     -43.25693819 Ry
     Harris-Foulkes estimate   =     -43.25694557 Ry
     estimated scf accuracy    <       0.00003375 Ry

     iteration #  6     ecut=    85.00 Ry     beta=0.40
     Davidson diagonalization with overlap
     ethr =  3.38E-07,  avg # of iterations =  3.0

     negative rho (up, down):  1.015E-07 0.000E+00

     total cpu time spent up to now is       18.2 secs

     total energy              =     -43.25694242 Ry
     Harris-Foulkes estimate   =     -43.25694262 Ry
     estimated scf accuracy    <       0.00000399 Ry

     iteration #  7     ecut=    85.00 Ry     beta=0.40
     Davidson diagonalization with overlap
     ethr =  3.99E-08,  avg # of iterations =  2.0

     total cpu time spent up to now is       19.8 secs

     End of self-consistent calculation

          k = 0.0000 0.0000 0.0000 (178607 PWs)   bands (ev):

   -29.0271 -14.0873 -11.6285 -11.6285  -9.0630  -2.1649  -2.1649  -0.1067
     0.3672   0.5075   0.5273   0.5274   0.6192   0.6209   0.9813   1.0365
     1.0367   1.0968   1.1677   1.1848   1.1850   1.2067   1.2071   1.2281
     1.2294   1.2296   1.6947   1.7183   1.7184   1.7497   1.7715   1.7715
     1.7895   1.8027   2.2035   2.2345   2.2949   2.2951   2.3048   2.4170
     2.7083   2.7611   2.7612   2.7636   2.7766   2.8044   2.8820   2.8823
     2.9434   2.9454   2.9455   2.9721   2.9797   2.9798   3.0091   3.0094
     3.0095   3.0131   3.0157   3.0259   3.0270   3.0273   3.0312   3.0550
     3.3858   3.4284   3.4285   3.4345   3.4858   3.4859   3.4874   3.5151
     3.5184   3.5744   3.5766   3.5768   3.5769   3.5821   3.5822   3.5997
     3.5999   3.6010   3.6049   3.6051   3.6052   3.6147   3.6156   3.6856
     4.5456   4.5806   4.6188   4.6679   4.6681   4.7004   4.7005   4.7046
     4.7333   4.7396   4.7397   4.8431

     highest occupied, lowest unoccupied level (ev):    -9.0630   -2.1649

!    total energy              =     -43.25694307 Ry
     Harris-Foulkes estimate   =     -43.25694300 Ry
     estimated scf accuracy    <       0.00000016 Ry

     The total energy is the sum of the following terms:

     one-electron contribution =     -93.60006698 Ry
     hartree contribution      =      47.81710674 Ry
     xc contribution           =     -10.11492496 Ry
     ewald contribution        =      12.64094213 Ry

     charge density inside the Wigner-Seitz cell:   10.00000000

     reference position (x0):         0.00000000    0.00000000    0.06210963 bohr

     Dipole moments (with respect to x0):
     Elect  -0.0000  -0.0000   0.0539 au (Ha),  -0.0000  -0.0000   0.1369 Debye
     Ionic   0.0000   0.0000   0.0000 au (Ha),   0.0000   0.0000   0.0000 Debye
     Total  -0.0000  -0.0000   0.0539 au (Ha),  -0.0000  -0.0000   0.1369 Debye

     Electrons quadrupole moment        -35.70994368 a.u. (Ha)
          Ions quadrupole moment         11.34126302 a.u. (Ha)
         Total quadrupole moment        -24.36868066 a.u. (Ha)

     *********    MAKOV-PAYNE CORRECTION    *********

     Makov-Payne correction with Madelung constant =   2.8373

     Makov-Payne correction     0.00000000 Ry =  0.000 eV (1st order, 1/a0)
                                0.00000045 Ry =  0.000 eV (2nd order, 1/a0^3)
                                0.00000045 Ry =  0.000 eV (total)

!    Total+Makov-Payne energy  =     -43.25694262 Ry
     Corrected vacuum level    =       0.05147526 eV

     convergence has been achieved in   7 iterations

     Writing output data file ./co.save
 
     init_run     :      1.50s CPU      1.78s WALL (       1 calls)
     electrons    :     17.06s CPU     17.27s WALL (       1 calls)

     Called by init_run:
     wfcinit      :      0.57s CPU      0.62s WALL (       1 calls)
     potinit      :      0.21s CPU      0.27s WALL (       1 calls)

     Called by electrons:
     c_bands      :     14.19s CPU     14.27s WALL (       7 calls)
     sum_band     :      1.81s CPU      1.82s WALL (       7 calls)
     v_of_rho     :      0.79s CPU      0.84s WALL (       8 calls)
     mix_rho      :      0.11s CPU      0.11s WALL (       7 calls)

     Called by c_bands:
     init_us_2    :      0.01s CPU      0.01s WALL (      15 calls)
     regterg      :     14.17s CPU     14.25s WALL (       7 calls)

     Called by sum_band:

     Called by *egterg:
     h_psi        :     10.94s CPU     10.99s WALL (      43 calls)
     g_psi        :      0.02s CPU      0.03s WALL (      35 calls)
     rdiaghg      :      1.54s CPU      1.58s WALL (      42 calls)

     Called by h_psi:
     h_psi:pot    :     10.85s CPU     10.91s WALL (      43 calls)
     h_psi:calbec :      0.07s CPU      0.08s WALL (      43 calls)
     vloc_psi     :     10.76s CPU     10.79s WALL (      43 calls)
     add_vuspsi   :      0.02s CPU      0.03s WALL (      43 calls)

     General routines
     calbec       :      0.07s CPU      0.08s WALL (      43 calls)
     fft          :      0.85s CPU      1.00s WALL (      87 calls)
     fftw         :     11.71s CPU     11.60s WALL (    2698 calls)
 
     Parallel routines
     fft_scatter  :      9.49s CPU      9.24s WALL (    2785 calls)
 
     PWSCF        :    20.90s CPU        25.29s WALL

 
   This run was terminated on:  21: 3:11  18Apr2018            

=------------------------------------------------------------------------------=
   JOB DONE.
=------------------------------------------------------------------------------=
