
     Program PWSCF v.6.1 (svn rev. 13369) starts on 18Apr2018 at 21: 9: 8 

     This program is part of the open-source Quantum ESPRESSO suite
     for quantum simulation of materials; please cite
         "P. Giannozzi et al., J. Phys.:Condens. Matter 21 395502 (2009);
          URL http://www.quantum-espresso.org", 
     in publications or presentations arising from this work. More details at
     http://www.quantum-espresso.org/quote

     Parallel version (MPI & OpenMP), running on      80 processor cores
     Number of MPI processes:                80
     Threads/MPI process:                     1
     R & G space division:  proc/nbgrp/npool/nimage =      80
     Waiting for input...
     Reading input from standard input

     Current dimensions of program PWSCF are:
     Max number of different atomic species (ntypx) = 10
     Max number of k-points (npk) =  40000
     Max angular momentum in pseudopotentials (lmaxx) =  3

     gamma-point specific algorithms are used

     Subspace diagonalization in iterative solution of the eigenvalue problem:
     one sub-group per band group will be used
     scalapack distributed-memory algorithm (size of sub-group:  6*  6 procs)

 
     Parallelization info
     --------------------
     sticks:   dense  smooth     PW     G-vecs:    dense   smooth      PW
     Min         303     303     75                35728    35728    4455
     Max         306     306     80                35736    35736    4472
     Sum       24345   24345   6093              2858633  2858633  357213
 


     bravais-lattice index     =            1
     lattice parameter (alat)  =      30.0000  a.u.
     unit-cell volume          =   27000.0000 (a.u.)^3
     number of atoms/cell      =            2
     number of atomic types    =            2
     number of electrons       =        10.00
     number of Kohn-Sham states=          100
     kinetic-energy cutoff     =      85.0000  Ry
     charge density cutoff     =     340.0000  Ry
     convergence threshold     =      1.0E-06
     mixing beta               =       0.4000
     number of iterations used =            8  plain     mixing
     Exchange-correlation      = PBE ( 1  4  3  4 0 0)

     celldm(1)=  30.000000  celldm(2)=   0.000000  celldm(3)=   0.000000
     celldm(4)=   0.000000  celldm(5)=   0.000000  celldm(6)=   0.000000

     crystal axes: (cart. coord. in units of alat)
               a(1) = (   1.000000   0.000000   0.000000 )  
               a(2) = (   0.000000   1.000000   0.000000 )  
               a(3) = (   0.000000   0.000000   1.000000 )  

     reciprocal axes: (cart. coord. in units 2 pi/alat)
               b(1) = (  1.000000  0.000000  0.000000 )  
               b(2) = (  0.000000  1.000000  0.000000 )  
               b(3) = (  0.000000  0.000000  1.000000 )  


     PseudoPot. # 1 for Li read from file:
     ~/PseudoPotential/upf/Li_ONCV_PBE-1.0.upf
     MD5 check sum: Not computed, couldn't open file
     Pseudo is Norm-conserving, Zval =  3.0
     Generated using ONCVPSP code by D. R. Hamann
     Using radial grid of  602 points,  4 beta functions with: 
                l(1) =   0
                l(2) =   0
                l(3) =   1
                l(4) =   1

     PseudoPot. # 2 for F  read from file:
     ~/PseudoPotential/upf/F_ONCV_PBE-1.0.upf
     MD5 check sum: Not computed, couldn't open file
     Pseudo is Norm-conserving, Zval =  7.0
     Generated using ONCVPSP code by D. R. Hamann
     Using radial grid of  602 points,  4 beta functions with: 
                l(1) =   0
                l(2) =   0
                l(3) =   1
                l(4) =   1

     atomic species   valence    mass     pseudopotential
        Li             3.00     1.00000     Li( 1.00)
        F              7.00     1.00000     F ( 1.00)

     No symmetry found



   Cartesian axes

     site n.     atom                  positions (alat units)
         1           Li  tau(   1) = (   0.0000000   0.0000000  -0.0740121  )
         2           F   tau(   2) = (   0.0000000   0.0000000   0.0246707  )

     number of k points=     1
                       cart. coord. in units 2pi/alat
        k(    1) = (   0.0000000   0.0000000   0.0000000), wk =   2.0000000

     Dense  grid:  1429317 G-vectors     FFT dimensions: ( 180, 180, 180)

     Estimated max dynamical RAM per process >      49.07MB

     Estimated total allocated dynamical RAM >    3925.74MB

     Initial potential from superposition of free atoms
     Check: negative starting charge=   -0.003435

     starting charge    9.88689, renormalised to   10.00000

     negative rho (up, down):  3.474E-03 0.000E+00
     Starting wfc are random

     total cpu time spent up to now is        2.7 secs

     per-process dynamical memory:    66.9 Mb

     Self-consistent Calculation

     iteration #  1     ecut=    85.00 Ry     beta=0.40
     Davidson diagonalization with overlap
     ethr =  1.00E-02,  avg # of iterations = 13.0

     negative rho (up, down):  2.006E-03 0.000E+00

     total cpu time spent up to now is        9.5 secs

     total energy              =     -62.04549243 Ry
     Harris-Foulkes estimate   =     -62.23873200 Ry
     estimated scf accuracy    <       0.35302564 Ry

     iteration #  2     ecut=    85.00 Ry     beta=0.40
     Davidson diagonalization with overlap
     ethr =  3.53E-03,  avg # of iterations =  2.0

     negative rho (up, down):  1.035E-03 0.000E+00

     total cpu time spent up to now is       11.0 secs

     total energy              =     -62.09554524 Ry
     Harris-Foulkes estimate   =     -62.10692830 Ry
     estimated scf accuracy    <       0.04213499 Ry

     iteration #  3     ecut=    85.00 Ry     beta=0.40
     Davidson diagonalization with overlap
     ethr =  4.21E-04,  avg # of iterations =  1.0

     negative rho (up, down):  5.840E-05 0.000E+00

     total cpu time spent up to now is       12.5 secs

     total energy              =     -62.09256442 Ry
     Harris-Foulkes estimate   =     -62.09638374 Ry
     estimated scf accuracy    <       0.01267457 Ry

     iteration #  4     ecut=    85.00 Ry     beta=0.40
     Davidson diagonalization with overlap
     ethr =  1.27E-04,  avg # of iterations =  4.0

     negative rho (up, down):  2.645E-05 0.000E+00

     total cpu time spent up to now is       14.2 secs

     total energy              =     -62.09346776 Ry
     Harris-Foulkes estimate   =     -62.09346274 Ry
     estimated scf accuracy    <       0.00014996 Ry

     iteration #  5     ecut=    85.00 Ry     beta=0.40
     Davidson diagonalization with overlap
     ethr =  1.50E-06,  avg # of iterations = 12.0

     negative rho (up, down):  1.872E-07 0.000E+00

     total cpu time spent up to now is       17.7 secs

     total energy              =     -62.09350981 Ry
     Harris-Foulkes estimate   =     -62.09350662 Ry
     estimated scf accuracy    <       0.00005253 Ry

     iteration #  6     ecut=    85.00 Ry     beta=0.40
     Davidson diagonalization with overlap
     ethr =  5.25E-07,  avg # of iterations =  4.0

     negative rho (up, down):  4.554E-08 0.000E+00

     total cpu time spent up to now is       19.5 secs

     total energy              =     -62.09352026 Ry
     Harris-Foulkes estimate   =     -62.09352199 Ry
     estimated scf accuracy    <       0.00000336 Ry

     iteration #  7     ecut=    85.00 Ry     beta=0.40
     Davidson diagonalization with overlap
     ethr =  3.36E-08,  avg # of iterations =  2.0

     total cpu time spent up to now is       21.0 secs

     End of self-consistent calculation

          k = 0.0000 0.0000 0.0000 (178607 PWs)   bands (ev):

   -50.4369 -24.5027  -6.3968  -6.1027  -6.1027  -1.4339   0.0717   0.1875
     0.1875   0.4742   0.5747   0.6356   0.7751   0.8081   0.8081   1.0076
     1.0991   1.1429   1.1430   1.1780   1.2178   1.2262   1.2287   1.2288
     1.5122   1.5184   1.5184   1.7105   1.7164   1.7539   1.7539   1.7887
     2.0007   2.0007   2.0375   2.1709   2.2556   2.3200   2.4924   2.4924
     2.5402   2.7248   2.7264   2.7567   2.8257   2.8257   2.8900   2.8958
     2.8959   2.8975   2.9414   2.9414   2.9571   2.9826   2.9863   2.9902
     2.9902   3.0129   3.0311   3.0336   3.0336   3.0414   3.2570   3.2570
     3.3206   3.3609   3.4305   3.4305   3.4389   3.4583   3.5076   3.5458
     3.5458   3.5671   3.5721   3.5766   3.5767   3.5834   3.5881   3.5902
     3.5902   3.6016   3.6017   3.6027   3.6145   3.6200   4.1359   4.1359
     4.3185   4.5528   4.6342   4.6469   4.6470   4.6520   4.6805   4.6895
     4.6896   4.7414   4.9043   4.9044

     highest occupied, lowest unoccupied level (ev):    -6.1027   -1.4339

!    total energy              =     -62.09352091 Ry
     Harris-Foulkes estimate   =     -62.09352113 Ry
     estimated scf accuracy    <       0.00000025 Ry

     The total energy is the sum of the following terms:

     one-electron contribution =    -111.08335851 Ry
     hartree contribution      =      56.80872407 Ry
     xc contribution           =     -12.57707122 Ry
     ewald contribution        =       4.75818475 Ry

     charge density inside the Wigner-Seitz cell:   10.00000000

     reference position (x0):         0.00000000    0.00000000   -0.14802414 bohr

     Dipole moments (with respect to x0):
     Elect  -0.0000   0.0000  -2.4081 au (Ha),  -0.0000   0.0000  -6.1207 Debye
     Ionic   0.0000   0.0000   0.0000 au (Ha),   0.0000   0.0000   0.0000 Debye
     Total  -0.0000   0.0000  -2.4081 au (Ha),  -0.0000   0.0000  -6.1207 Debye

     Electrons quadrupole moment        -31.54608915 a.u. (Ha)
          Ions quadrupole moment         18.40536209 a.u. (Ha)
         Total quadrupole moment        -13.14072706 a.u. (Ha)

     *********    MAKOV-PAYNE CORRECTION    *********

     Makov-Payne correction with Madelung constant =   2.8373

     Makov-Payne correction     0.00000000 Ry =  0.000 eV (1st order, 1/a0)
                                0.00089963 Ry =  0.012 eV (2nd order, 1/a0^3)
                                0.00089963 Ry =  0.012 eV (total)

!    Total+Makov-Payne energy  =     -62.09262128 Ry
     Corrected vacuum level    =       0.02767059 eV

     convergence has been achieved in   7 iterations

     Writing output data file ./lif.save
 
     init_run     :      1.43s CPU      1.73s WALL (       1 calls)
     electrons    :     18.43s CPU     18.89s WALL (       1 calls)

     Called by init_run:
     wfcinit      :      0.56s CPU      0.60s WALL (       1 calls)
     potinit      :      0.19s CPU      0.25s WALL (       1 calls)

     Called by electrons:
     c_bands      :     15.55s CPU     15.64s WALL (       7 calls)
     sum_band     :      1.82s CPU      1.83s WALL (       7 calls)
     v_of_rho     :      0.79s CPU      0.85s WALL (       8 calls)
     mix_rho      :      0.11s CPU      0.11s WALL (       7 calls)

     Called by c_bands:
     init_us_2    :      0.01s CPU      0.01s WALL (      15 calls)
     regterg      :     15.52s CPU     15.61s WALL (       7 calls)

     Called by sum_band:

     Called by *egterg:
     h_psi        :     11.67s CPU     11.72s WALL (      46 calls)
     g_psi        :      0.02s CPU      0.03s WALL (      38 calls)
     rdiaghg      :      1.95s CPU      2.00s WALL (      45 calls)

     Called by h_psi:
     h_psi:pot    :     11.58s CPU     11.62s WALL (      46 calls)
     h_psi:calbec :      0.08s CPU      0.08s WALL (      46 calls)
     vloc_psi     :     11.48s CPU     11.51s WALL (      46 calls)
     add_vuspsi   :      0.02s CPU      0.04s WALL (      46 calls)

     General routines
     calbec       :      0.08s CPU      0.08s WALL (      46 calls)
     fft          :      0.82s CPU      0.97s WALL (      87 calls)
     fftw         :     12.37s CPU     12.29s WALL (    2868 calls)
 
     Parallel routines
     fft_scatter  :      9.98s CPU      9.73s WALL (    2955 calls)
 
     PWSCF        :    22.11s CPU        26.51s WALL

 
   This run was terminated on:  21: 9:34  18Apr2018            

=------------------------------------------------------------------------------=
   JOB DONE.
=------------------------------------------------------------------------------=
