
     Program PWSCF v.6.1 (svn rev. 13369) starts on 18Apr2018 at 21:12:58 

     This program is part of the open-source Quantum ESPRESSO suite
     for quantum simulation of materials; please cite
         "P. Giannozzi et al., J. Phys.:Condens. Matter 21 395502 (2009);
          URL http://www.quantum-espresso.org", 
     in publications or presentations arising from this work. More details at
     http://www.quantum-espresso.org/quote

     Parallel version (MPI & OpenMP), running on      80 processor cores
     Number of MPI processes:                80
     Threads/MPI process:                     1
     R & G space division:  proc/nbgrp/npool/nimage =      80
     Waiting for input...
     Reading input from standard input

     Current dimensions of program PWSCF are:
     Max number of different atomic species (ntypx) = 10
     Max number of k-points (npk) =  40000
     Max angular momentum in pseudopotentials (lmaxx) =  3

     gamma-point specific algorithms are used

     Subspace diagonalization in iterative solution of the eigenvalue problem:
     one sub-group per band group will be used
     scalapack distributed-memory algorithm (size of sub-group:  6*  6 procs)

 
     Parallelization info
     --------------------
     sticks:   dense  smooth     PW     G-vecs:    dense   smooth      PW
     Min         303     303     75                35728    35728    4455
     Max         306     306     80                35736    35736    4472
     Sum       24345   24345   6093              2858633  2858633  357213
 


     bravais-lattice index     =            1
     lattice parameter (alat)  =      30.0000  a.u.
     unit-cell volume          =   27000.0000 (a.u.)^3
     number of atoms/cell      =            2
     number of atomic types    =            1
     number of electrons       =        10.00
     number of Kohn-Sham states=          100
     kinetic-energy cutoff     =      85.0000  Ry
     charge density cutoff     =     340.0000  Ry
     convergence threshold     =      1.0E-06
     mixing beta               =       0.4000
     number of iterations used =            8  plain     mixing
     Exchange-correlation      = PBE ( 1  4  3  4 0 0)

     celldm(1)=  30.000000  celldm(2)=   0.000000  celldm(3)=   0.000000
     celldm(4)=   0.000000  celldm(5)=   0.000000  celldm(6)=   0.000000

     crystal axes: (cart. coord. in units of alat)
               a(1) = (   1.000000   0.000000   0.000000 )  
               a(2) = (   0.000000   1.000000   0.000000 )  
               a(3) = (   0.000000   0.000000   1.000000 )  

     reciprocal axes: (cart. coord. in units 2 pi/alat)
               b(1) = (  1.000000  0.000000  0.000000 )  
               b(2) = (  0.000000  1.000000  0.000000 )  
               b(3) = (  0.000000  0.000000  1.000000 )  


     PseudoPot. # 1 for P  read from file:
     ~/PseudoPotential/upf/P_ONCV_PBE-1.0.upf
     MD5 check sum: Not computed, couldn't open file
     Pseudo is Norm-conserving, Zval =  5.0
     Generated using ONCVPSP code by D. R. Hamann
     Using radial grid of  602 points,  4 beta functions with: 
                l(1) =   0
                l(2) =   0
                l(3) =   1
                l(4) =   1

     atomic species   valence    mass     pseudopotential
        P              5.00     1.00000     P ( 1.00)

     No symmetry found



   Cartesian axes

     site n.     atom                  positions (alat units)
         1           P   tau(   1) = (   0.0000000   0.0000000   0.0608583  )
         2           P   tau(   2) = (   0.0000000   0.0000000  -0.0608583  )

     number of k points=     1
                       cart. coord. in units 2pi/alat
        k(    1) = (   0.0000000   0.0000000   0.0000000), wk =   2.0000000

     Dense  grid:  1429317 G-vectors     FFT dimensions: ( 180, 180, 180)

     Estimated max dynamical RAM per process >      49.07MB

     Estimated total allocated dynamical RAM >    3925.74MB

     Initial potential from superposition of free atoms
     Check: negative starting charge=   -0.001736

     starting charge    9.95517, renormalised to   10.00000

     negative rho (up, down):  1.744E-03 0.000E+00
     Starting wfc are random

     total cpu time spent up to now is        2.8 secs

     per-process dynamical memory:    64.4 Mb

     Self-consistent Calculation

     iteration #  1     ecut=    85.00 Ry     beta=0.40
     Davidson diagonalization with overlap
     ethr =  1.00E-02,  avg # of iterations = 13.0

     negative rho (up, down):  4.847E-04 0.000E+00

     total cpu time spent up to now is        9.5 secs

     total energy              =     -26.24621344 Ry
     Harris-Foulkes estimate   =     -26.30531298 Ry
     estimated scf accuracy    <       0.12660870 Ry

     iteration #  2     ecut=    85.00 Ry     beta=0.40
     Davidson diagonalization with overlap
     ethr =  1.27E-03,  avg # of iterations =  1.0

     negative rho (up, down):  2.112E-04 0.000E+00

     total cpu time spent up to now is       11.0 secs

     total energy              =     -26.25952086 Ry
     Harris-Foulkes estimate   =     -26.26273484 Ry
     estimated scf accuracy    <       0.00993021 Ry

     iteration #  3     ecut=    85.00 Ry     beta=0.40
     Davidson diagonalization with overlap
     ethr =  9.93E-05,  avg # of iterations =  5.0

     negative rho (up, down):  2.367E-05 0.000E+00

     total cpu time spent up to now is       12.7 secs

     total energy              =     -26.25972495 Ry
     Harris-Foulkes estimate   =     -26.26028273 Ry
     estimated scf accuracy    <       0.00177587 Ry

     iteration #  4     ecut=    85.00 Ry     beta=0.40
     Davidson diagonalization with overlap
     ethr =  1.78E-05,  avg # of iterations = 11.0

     negative rho (up, down):  1.059E-05 0.000E+00

     total cpu time spent up to now is       15.1 secs

     total energy              =     -26.25987948 Ry
     Harris-Foulkes estimate   =     -26.25988135 Ry
     estimated scf accuracy    <       0.00001465 Ry

     iteration #  5     ecut=    85.00 Ry     beta=0.40
     Davidson diagonalization with overlap
     ethr =  1.46E-07,  avg # of iterations =  5.0

     negative rho (up, down):  2.326E-06 0.000E+00

     total cpu time spent up to now is       17.1 secs

     total energy              =     -26.25989023 Ry
     Harris-Foulkes estimate   =     -26.25989032 Ry
     estimated scf accuracy    <       0.00000392 Ry

     iteration #  6     ecut=    85.00 Ry     beta=0.40
     Davidson diagonalization with overlap
     ethr =  3.92E-08,  avg # of iterations =  1.0

     total cpu time spent up to now is       18.6 secs

     End of self-consistent calculation

          k = 0.0000 0.0000 0.0000 (178607 PWs)   bands (ev):

   -16.6806 -11.6132  -7.1060  -6.9149  -6.9149  -3.4121  -3.4121  -0.2853
    -0.0337   0.2940   0.4299   0.4300   0.5643   0.5788   0.7777   0.9360
     0.9740   1.0143   1.0144   1.1211   1.1211   1.1221   1.1890   1.2203
     1.2205   1.2261   1.4305   1.5672   1.6174   1.6522   1.7317   1.7317
     1.7412   1.7431   1.7432   1.9738   1.9754   2.1659   2.1659   2.1807
     2.2432   2.4217   2.5980   2.6310   2.6310   2.6311   2.7209   2.8311
     2.8311   2.8430   2.8651   2.8651   2.9218   2.9218   2.9717   2.9717
     3.0012   3.0034   3.0036   3.0396   3.0396   3.0404   3.0540   3.0781
     3.0874   3.1749   3.1870   3.3744   3.4078   3.4079   3.4221   3.4298
     3.4298   3.4963   3.4964   3.5075   3.5552   3.5651   3.5651   3.5793
     3.5794   3.5814   3.5922   3.5922   3.5977   3.6067   3.6156   3.6869
     3.7460   3.9258   3.9655   3.9655   3.9875   4.3905   4.4387   4.6872
     4.6908   4.7156   4.7356   4.7358

     highest occupied, lowest unoccupied level (ev):    -6.9149   -3.4121

!    total energy              =     -26.25989032 Ry
     Harris-Foulkes estimate   =     -26.25989057 Ry
     estimated scf accuracy    <       0.00000073 Ry

     The total energy is the sum of the following terms:

     one-electron contribution =     -49.36839418 Ry
     hartree contribution      =      25.19432608 Ry
     xc contribution           =      -6.37403924 Ry
     ewald contribution        =       4.28821702 Ry

     charge density inside the Wigner-Seitz cell:   10.00000000

     reference position (x0):         0.00000000    0.00000000    0.00000000 bohr

     Dipole moments (with respect to x0):
     Elect  -0.0000   0.0000   0.0034 au (Ha),  -0.0000   0.0000   0.0086 Debye
     Ionic   0.0000   0.0000   0.0000 au (Ha),   0.0000   0.0000   0.0000 Debye
     Total  -0.0000   0.0000   0.0034 au (Ha),  -0.0000   0.0000   0.0086 Debye

     Electrons quadrupole moment        -86.16776086 a.u. (Ha)
          Ions quadrupole moment         33.33354171 a.u. (Ha)
         Total quadrupole moment        -52.83421915 a.u. (Ha)

     *********    MAKOV-PAYNE CORRECTION    *********

     Makov-Payne correction with Madelung constant =   2.8373

     Makov-Payne correction     0.00000000 Ry =  0.000 eV (1st order, 1/a0)
                                0.00000000 Ry =  0.000 eV (2nd order, 1/a0^3)
                                0.00000000 Ry =  0.000 eV (total)

!    Total+Makov-Payne energy  =     -26.25989032 Ry
     Corrected vacuum level    =       0.11161612 eV

     convergence has been achieved in   6 iterations

     Writing output data file ./p2.save
 
     init_run     :      1.41s CPU      1.74s WALL (       1 calls)
     electrons    :     15.95s CPU     16.18s WALL (       1 calls)

     Called by init_run:
     wfcinit      :      0.55s CPU      0.62s WALL (       1 calls)
     potinit      :      0.15s CPU      0.25s WALL (       1 calls)

     Called by electrons:
     c_bands      :     13.42s CPU     13.48s WALL (       6 calls)
     sum_band     :      1.56s CPU      1.58s WALL (       6 calls)
     v_of_rho     :      0.71s CPU      0.76s WALL (       7 calls)
     mix_rho      :      0.09s CPU      0.10s WALL (       6 calls)

     Called by c_bands:
     init_us_2    :      0.00s CPU      0.02s WALL (      13 calls)
     regterg      :     13.40s CPU     13.47s WALL (       6 calls)

     Called by sum_band:

     Called by *egterg:
     h_psi        :     10.23s CPU     10.28s WALL (      43 calls)
     g_psi        :      0.02s CPU      0.02s WALL (      36 calls)
     rdiaghg      :      1.57s CPU      1.61s WALL (      42 calls)

     Called by h_psi:
     h_psi:pot    :     10.15s CPU     10.20s WALL (      43 calls)
     h_psi:calbec :      0.07s CPU      0.07s WALL (      43 calls)
     vloc_psi     :     10.06s CPU     10.09s WALL (      43 calls)
     add_vuspsi   :      0.02s CPU      0.03s WALL (      43 calls)

     General routines
     calbec       :      0.07s CPU      0.07s WALL (      43 calls)
     fft          :      0.74s CPU      0.87s WALL (      76 calls)
     fftw         :     10.91s CPU     10.80s WALL (    2486 calls)
 
     Parallel routines
     fft_scatter  :      8.93s CPU      8.61s WALL (    2562 calls)
 
     PWSCF        :    19.59s CPU        24.13s WALL

 
   This run was terminated on:  21:13:23  18Apr2018            

=------------------------------------------------------------------------------=
   JOB DONE.
=------------------------------------------------------------------------------=
