
     Program PWSCF v.6.1 (svn rev. 13369) starts on 18Apr2018 at 21: 2:14 

     This program is part of the open-source Quantum ESPRESSO suite
     for quantum simulation of materials; please cite
         "P. Giannozzi et al., J. Phys.:Condens. Matter 21 395502 (2009);
          URL http://www.quantum-espresso.org", 
     in publications or presentations arising from this work. More details at
     http://www.quantum-espresso.org/quote

     Parallel version (MPI & OpenMP), running on      80 processor cores
     Number of MPI processes:                80
     Threads/MPI process:                     1
     R & G space division:  proc/nbgrp/npool/nimage =      80
     Waiting for input...
     Reading input from standard input

     Current dimensions of program PWSCF are:
     Max number of different atomic species (ntypx) = 10
     Max number of k-points (npk) =  40000
     Max angular momentum in pseudopotentials (lmaxx) =  3

     gamma-point specific algorithms are used

     Subspace diagonalization in iterative solution of the eigenvalue problem:
     one sub-group per band group will be used
     scalapack distributed-memory algorithm (size of sub-group:  6*  6 procs)

 
     Parallelization info
     --------------------
     sticks:   dense  smooth     PW     G-vecs:    dense   smooth      PW
     Min         303     303     75                35728    35728    4455
     Max         306     306     80                35736    35736    4472
     Sum       24345   24345   6093              2858633  2858633  357213
 


     bravais-lattice index     =            1
     lattice parameter (alat)  =      30.0000  a.u.
     unit-cell volume          =   27000.0000 (a.u.)^3
     number of atoms/cell      =            2
     number of atomic types    =            2
     number of electrons       =        14.00
     number of Kohn-Sham states=          100
     kinetic-energy cutoff     =      85.0000  Ry
     charge density cutoff     =     340.0000  Ry
     convergence threshold     =      1.0E-06
     mixing beta               =       0.4000
     number of iterations used =            8  plain     mixing
     Exchange-correlation      = PBE ( 1  4  3  4 0 0)

     celldm(1)=  30.000000  celldm(2)=   0.000000  celldm(3)=   0.000000
     celldm(4)=   0.000000  celldm(5)=   0.000000  celldm(6)=   0.000000

     crystal axes: (cart. coord. in units of alat)
               a(1) = (   1.000000   0.000000   0.000000 )  
               a(2) = (   0.000000   1.000000   0.000000 )  
               a(3) = (   0.000000   0.000000   1.000000 )  

     reciprocal axes: (cart. coord. in units 2 pi/alat)
               b(1) = (  1.000000  0.000000  0.000000 )  
               b(2) = (  0.000000  1.000000  0.000000 )  
               b(3) = (  0.000000  0.000000  1.000000 )  


     PseudoPot. # 1 for F  read from file:
     ~/PseudoPotential/upf/F_ONCV_PBE-1.0.upf
     MD5 check sum: Not computed, couldn't open file
     Pseudo is Norm-conserving, Zval =  7.0
     Generated using ONCVPSP code by D. R. Hamann
     Using radial grid of  602 points,  4 beta functions with: 
                l(1) =   0
                l(2) =   0
                l(3) =   1
                l(4) =   1

     PseudoPot. # 2 for Cl read from file:
     ~/PseudoPotential/upf/Cl_ONCV_PBE-1.0.upf
     MD5 check sum: Not computed, couldn't open file
     Pseudo is Norm-conserving, Zval =  7.0
     Generated using ONCVPSP code by D. R. Hamann
     Using radial grid of  602 points,  4 beta functions with: 
                l(1) =   0
                l(2) =   0
                l(3) =   1
                l(4) =   1

     atomic species   valence    mass     pseudopotential
        F              7.00     1.00000     F ( 1.00)
        Cl             7.00     1.00000     Cl( 1.00)

     No symmetry found



   Cartesian axes

     site n.     atom                  positions (alat units)
         1           F   tau(   1) = (   0.0000000   0.0000000  -0.0683321  )
         2           Cl  tau(   2) = (   0.0000000   0.0000000   0.0361758  )

     number of k points=     1
                       cart. coord. in units 2pi/alat
        k(    1) = (   0.0000000   0.0000000   0.0000000), wk =   2.0000000

     Dense  grid:  1429317 G-vectors     FFT dimensions: ( 180, 180, 180)

     Estimated max dynamical RAM per process >      49.07MB

     Estimated total allocated dynamical RAM >    3925.74MB

     Initial potential from superposition of free atoms
     Check: negative starting charge=   -0.000304

     starting charge   13.99496, renormalised to   14.00000

     negative rho (up, down):  3.045E-04 0.000E+00
     Starting wfc are random

     total cpu time spent up to now is        2.8 secs

     per-process dynamical memory:    66.9 Mb

     Self-consistent Calculation

     iteration #  1     ecut=    85.00 Ry     beta=0.40
     Davidson diagonalization with overlap
     ethr =  1.00E-02,  avg # of iterations = 14.0

     negative rho (up, down):  8.936E-05 0.000E+00

     total cpu time spent up to now is        9.6 secs

     total energy              =     -77.75465772 Ry
     Harris-Foulkes estimate   =     -77.81765469 Ry
     estimated scf accuracy    <       0.14698945 Ry

     iteration #  2     ecut=    85.00 Ry     beta=0.40
     Davidson diagonalization with overlap
     ethr =  1.05E-03,  avg # of iterations =  1.0

     negative rho (up, down):  4.820E-05 0.000E+00

     total cpu time spent up to now is       11.1 secs

     total energy              =     -77.76523264 Ry
     Harris-Foulkes estimate   =     -77.77682303 Ry
     estimated scf accuracy    <       0.03331398 Ry

     iteration #  3     ecut=    85.00 Ry     beta=0.40
     Davidson diagonalization with overlap
     ethr =  2.38E-04,  avg # of iterations =  1.0

     negative rho (up, down):  6.661E-06 0.000E+00

     total cpu time spent up to now is       12.6 secs

     total energy              =     -77.76520468 Ry
     Harris-Foulkes estimate   =     -77.76868805 Ry
     estimated scf accuracy    <       0.00872932 Ry

     iteration #  4     ecut=    85.00 Ry     beta=0.40
     Davidson diagonalization with overlap
     ethr =  6.24E-05,  avg # of iterations =  5.0

     negative rho (up, down):  1.573E-06 0.000E+00

     total cpu time spent up to now is       14.3 secs

     total energy              =     -77.76584070 Ry
     Harris-Foulkes estimate   =     -77.76588222 Ry
     estimated scf accuracy    <       0.00017456 Ry

     iteration #  5     ecut=    85.00 Ry     beta=0.40
     Davidson diagonalization with overlap
     ethr =  1.25E-06,  avg # of iterations = 12.0

     negative rho (up, down):  5.522E-07 0.000E+00

     total cpu time spent up to now is       17.3 secs

     total energy              =     -77.76587086 Ry
     Harris-Foulkes estimate   =     -77.76587181 Ry
     estimated scf accuracy    <       0.00001177 Ry

     iteration #  6     ecut=    85.00 Ry     beta=0.40
     Davidson diagonalization with overlap
     ethr =  8.41E-08,  avg # of iterations =  1.0

     negative rho (up, down):  4.751E-08 0.000E+00

     total cpu time spent up to now is       18.8 secs

     total energy              =     -77.76587204 Ry
     Harris-Foulkes estimate   =     -77.76587182 Ry
     estimated scf accuracy    <       0.00000167 Ry

     iteration #  7     ecut=    85.00 Ry     beta=0.40
     Davidson diagonalization with overlap
     ethr =  1.20E-08,  avg # of iterations =  1.0

     total cpu time spent up to now is       20.2 secs

     End of self-consistent calculation

          k = 0.0000 0.0000 0.0000 (178607 PWs)   bands (ev):

   -30.9457 -20.9930 -13.4997 -11.4652 -11.4652  -7.8498  -7.8498  -4.7033
    -0.2775   0.2895   0.5193   0.5193   0.5398   0.6339   0.6402   1.0202
     1.0387   1.0388   1.0733   1.1654   1.1727   1.1728   1.2175   1.2223
     1.2509   1.2509   1.2540   1.7381   1.7381   1.7398   1.7503   1.7550
     1.7550   1.7816   1.8208   2.1376   2.1821   2.3072   2.3072   2.3301
     2.4069   2.6340   2.7266   2.7377   2.7377   2.7499   2.8183   2.8183
     2.8497   2.9397   2.9398   2.9457   2.9647   2.9934   2.9935   3.0138
     3.0261   3.0261   3.0322   3.0351   3.0356   3.0518   3.0518   3.0518
     3.0585   3.3279   3.3830   3.3830   3.4789   3.4874   3.4874   3.5008
     3.5127   3.5240   3.5864   3.5879   3.5879   3.5922   3.6010   3.6010
     3.6162   3.6162   3.6226   3.6241   3.6272   3.6273   3.6363   3.6407
     3.6414   4.3554   4.3742   4.5042   4.5042   4.6091   4.6938   4.6938
     4.7019   4.7565   4.7565   4.7963

     highest occupied, lowest unoccupied level (ev):    -7.8498   -4.7033

!    total energy              =     -77.76587219 Ry
     Harris-Foulkes estimate   =     -77.76587220 Ry
     estimated scf accuracy    <       0.00000008 Ry

     The total energy is the sum of the following terms:

     one-electron contribution =    -155.41950005 Ry
     hartree contribution      =      79.67556607 Ry
     xc contribution           =     -14.81847048 Ry
     ewald contribution        =      12.79653227 Ry

     charge density inside the Wigner-Seitz cell:   14.00000000

     reference position (x0):         0.00000000    0.00000000   -0.48234504 bohr

     Dipole moments (with respect to x0):
     Elect   0.0000  -0.0000   0.3401 au (Ha),   0.0000  -0.0000   0.8644 Debye
     Ionic   0.0000   0.0000   0.0000 au (Ha),   0.0000   0.0000   0.0000 Debye
     Total   0.0000  -0.0000   0.3401 au (Ha),   0.0000  -0.0000   0.8644 Debye

     Electrons quadrupole moment        -70.42161068 a.u. (Ha)
          Ions quadrupole moment         34.40399016 a.u. (Ha)
         Total quadrupole moment        -36.01762052 a.u. (Ha)

     *********    MAKOV-PAYNE CORRECTION    *********

     Makov-Payne correction with Madelung constant =   2.8373

     Makov-Payne correction     0.00000000 Ry =  0.000 eV (1st order, 1/a0)
                                0.00001794 Ry =  0.000 eV (2nd order, 1/a0^3)
                                0.00001794 Ry =  0.000 eV (total)

!    Total+Makov-Payne energy  =     -77.76585425 Ry
     Corrected vacuum level    =       0.07589082 eV

     convergence has been achieved in   7 iterations

     Writing output data file ./clf.save
 
     init_run     :      1.53s CPU      1.81s WALL (       1 calls)
     electrons    :     17.61s CPU     17.85s WALL (       1 calls)

     Called by init_run:
     wfcinit      :      0.55s CPU      0.61s WALL (       1 calls)
     potinit      :      0.20s CPU      0.26s WALL (       1 calls)

     Called by electrons:
     c_bands      :     14.72s CPU     14.78s WALL (       7 calls)
     sum_band     :      1.82s CPU      1.83s WALL (       7 calls)
     v_of_rho     :      0.80s CPU      0.85s WALL (       8 calls)
     mix_rho      :      0.11s CPU      0.12s WALL (       7 calls)

     Called by c_bands:
     init_us_2    :      0.00s CPU      0.01s WALL (      15 calls)
     regterg      :     14.70s CPU     14.76s WALL (       7 calls)

     Called by sum_band:

     Called by *egterg:
     h_psi        :     11.19s CPU     11.23s WALL (      43 calls)
     g_psi        :      0.02s CPU      0.03s WALL (      35 calls)
     rdiaghg      :      1.71s CPU      1.75s WALL (      42 calls)

     Called by h_psi:
     h_psi:pot    :     11.11s CPU     11.14s WALL (      43 calls)
     h_psi:calbec :      0.07s CPU      0.08s WALL (      43 calls)
     vloc_psi     :     11.01s CPU     11.03s WALL (      43 calls)
     add_vuspsi   :      0.03s CPU      0.03s WALL (      43 calls)

     General routines
     calbec       :      0.07s CPU      0.07s WALL (      43 calls)
     fft          :      0.86s CPU      1.00s WALL (      87 calls)
     fftw         :     12.01s CPU     11.85s WALL (    2760 calls)
 
     Parallel routines
     fft_scatter  :      9.74s CPU      9.44s WALL (    2847 calls)
 
     PWSCF        :    21.42s CPU        26.12s WALL

 
   This run was terminated on:  21: 2:40  18Apr2018            

=------------------------------------------------------------------------------=
   JOB DONE.
=------------------------------------------------------------------------------=
