
     Program PWSCF v.6.1 (svn rev. 13369) starts on 18Apr2018 at 21: 1:40 

     This program is part of the open-source Quantum ESPRESSO suite
     for quantum simulation of materials; please cite
         "P. Giannozzi et al., J. Phys.:Condens. Matter 21 395502 (2009);
          URL http://www.quantum-espresso.org", 
     in publications or presentations arising from this work. More details at
     http://www.quantum-espresso.org/quote

     Parallel version (MPI & OpenMP), running on      80 processor cores
     Number of MPI processes:                80
     Threads/MPI process:                     1
     R & G space division:  proc/nbgrp/npool/nimage =      80
     Waiting for input...
     Reading input from standard input

     Current dimensions of program PWSCF are:
     Max number of different atomic species (ntypx) = 10
     Max number of k-points (npk) =  40000
     Max angular momentum in pseudopotentials (lmaxx) =  3

     gamma-point specific algorithms are used

     Subspace diagonalization in iterative solution of the eigenvalue problem:
     one sub-group per band group will be used
     scalapack distributed-memory algorithm (size of sub-group:  6*  6 procs)

 
     Parallelization info
     --------------------
     sticks:   dense  smooth     PW     G-vecs:    dense   smooth      PW
     Min         303     303     75                35728    35728    4455
     Max         306     306     80                35736    35736    4472
     Sum       24345   24345   6093              2858633  2858633  357213
 


     bravais-lattice index     =            1
     lattice parameter (alat)  =      30.0000  a.u.
     unit-cell volume          =   27000.0000 (a.u.)^3
     number of atoms/cell      =            2
     number of atomic types    =            1
     number of electrons       =        14.00
     number of Kohn-Sham states=          100
     kinetic-energy cutoff     =      85.0000  Ry
     charge density cutoff     =     340.0000  Ry
     convergence threshold     =      1.0E-06
     mixing beta               =       0.4000
     number of iterations used =            8  plain     mixing
     Exchange-correlation      = PBE ( 1  4  3  4 0 0)

     celldm(1)=  30.000000  celldm(2)=   0.000000  celldm(3)=   0.000000
     celldm(4)=   0.000000  celldm(5)=   0.000000  celldm(6)=   0.000000

     crystal axes: (cart. coord. in units of alat)
               a(1) = (   1.000000   0.000000   0.000000 )  
               a(2) = (   0.000000   1.000000   0.000000 )  
               a(3) = (   0.000000   0.000000   1.000000 )  

     reciprocal axes: (cart. coord. in units 2 pi/alat)
               b(1) = (  1.000000  0.000000  0.000000 )  
               b(2) = (  0.000000  1.000000  0.000000 )  
               b(3) = (  0.000000  0.000000  1.000000 )  


     PseudoPot. # 1 for Cl read from file:
     ~/PseudoPotential/upf/Cl_ONCV_PBE-1.0.upf
     MD5 check sum: Not computed, couldn't open file
     Pseudo is Norm-conserving, Zval =  7.0
     Generated using ONCVPSP code by D. R. Hamann
     Using radial grid of  602 points,  4 beta functions with: 
                l(1) =   0
                l(2) =   0
                l(3) =   1
                l(4) =   1

     atomic species   valence    mass     pseudopotential
        Cl             7.00     1.00000     Cl( 1.00)

     No symmetry found



   Cartesian axes

     site n.     atom                  positions (alat units)
         1           Cl  tau(   1) = (   0.0000000   0.0000000   0.0634659  )
         2           Cl  tau(   2) = (   0.0000000   0.0000000  -0.0634659  )

     number of k points=     1
                       cart. coord. in units 2pi/alat
        k(    1) = (   0.0000000   0.0000000   0.0000000), wk =   2.0000000

     Dense  grid:  1429317 G-vectors     FFT dimensions: ( 180, 180, 180)

     Estimated max dynamical RAM per process >      49.07MB

     Estimated total allocated dynamical RAM >    3925.74MB

     Initial potential from superposition of free atoms
     Check: negative starting charge=   -0.000451

     starting charge   13.99063, renormalised to   14.00000

     negative rho (up, down):  4.516E-04 0.000E+00
     Starting wfc are random

     total cpu time spent up to now is        2.6 secs

     per-process dynamical memory:    62.8 Mb

     Self-consistent Calculation

     iteration #  1     ecut=    85.00 Ry     beta=0.40
     Davidson diagonalization with overlap
     ethr =  1.00E-02,  avg # of iterations = 13.0

     Threshold (ethr) on eigenvalues was too large:
     Diagonalizing with lowered threshold

     Davidson diagonalization with overlap
     ethr =  4.32E-04,  avg # of iterations =  2.0

     negative rho (up, down):  1.246E-04 0.000E+00

     total cpu time spent up to now is       10.7 secs

     total energy              =     -60.24906620 Ry
     Harris-Foulkes estimate   =     -60.26840175 Ry
     estimated scf accuracy    <       0.06007015 Ry

     iteration #  2     ecut=    85.00 Ry     beta=0.40
     Davidson diagonalization with overlap
     ethr =  4.29E-04,  avg # of iterations =  1.0

     negative rho (up, down):  1.896E-05 0.000E+00

     total cpu time spent up to now is       12.2 secs

     total energy              =     -60.24357009 Ry
     Harris-Foulkes estimate   =     -60.25046442 Ry
     estimated scf accuracy    <       0.01605556 Ry

     iteration #  3     ecut=    85.00 Ry     beta=0.40
     Davidson diagonalization with overlap
     ethr =  1.15E-04,  avg # of iterations =  4.0

     negative rho (up, down):  6.916E-06 0.000E+00

     total cpu time spent up to now is       13.8 secs

     total energy              =     -60.24475660 Ry
     Harris-Foulkes estimate   =     -60.24477054 Ry
     estimated scf accuracy    <       0.00014545 Ry

     iteration #  4     ecut=    85.00 Ry     beta=0.40
     Davidson diagonalization with overlap
     ethr =  1.04E-06,  avg # of iterations = 13.0

     negative rho (up, down):  1.178E-06 0.000E+00

     total cpu time spent up to now is       17.1 secs

     total energy              =     -60.24479831 Ry
     Harris-Foulkes estimate   =     -60.24479727 Ry
     estimated scf accuracy    <       0.00001849 Ry

     iteration #  5     ecut=    85.00 Ry     beta=0.40
     Davidson diagonalization with overlap
     ethr =  1.32E-07,  avg # of iterations =  2.0

     negative rho (up, down):  3.175E-07 0.000E+00

     total cpu time spent up to now is       18.6 secs

     total energy              =     -60.24479986 Ry
     Harris-Foulkes estimate   =     -60.24479998 Ry
     estimated scf accuracy    <       0.00000151 Ry

     iteration #  6     ecut=    85.00 Ry     beta=0.40
     Davidson diagonalization with overlap
     ethr =  1.08E-08,  avg # of iterations =  2.0

     total cpu time spent up to now is       20.1 secs

     End of self-consistent calculation

          k = 0.0000 0.0000 0.0000 (178607 PWs)   bands (ev):

   -23.3091 -19.2546 -11.8569  -9.7896  -9.7896  -7.2359  -7.2359  -4.3397
    -0.3233   0.3036   0.4559   0.5028   0.5029   0.6120   0.6531   1.0277
     1.0309   1.0542   1.0542   1.1348   1.1349   1.1375   1.1991   1.2339
     1.2606   1.2606   1.2637   1.7195   1.7319   1.7407   1.7407   1.7683
     1.7683   1.7686   1.8014   1.9782   1.9806   2.2793   2.2794   2.2795
     2.4270   2.4722   2.6751   2.6962   2.7672   2.7672   2.7802   2.7803
     2.8523   2.8569   2.8687   2.8687   2.9697   2.9950   2.9950   3.0220
     3.0220   3.0272   3.0467   3.0517   3.0529   3.0691   3.0692   3.0706
     3.0793   3.2939   3.3365   3.4143   3.4143   3.4589   3.4589   3.4712
     3.4876   3.5370   3.5483   3.5484   3.5662   3.5921   3.6119   3.6119
     3.6238   3.6238   3.6293   3.6293   3.6296   3.6429   3.6492   3.6502
     3.6710   4.1023   4.1023   4.2172   4.2278   4.4437   4.5473   4.6815
     4.6815   4.7746   4.7747   4.8042

     highest occupied, lowest unoccupied level (ev):    -7.2359   -4.3397

!    total energy              =     -60.24480019 Ry
     Harris-Foulkes estimate   =     -60.24480008 Ry
     estimated scf accuracy    <       0.00000010 Ry

     The total energy is the sum of the following terms:

     one-electron contribution =    -114.06162672 Ry
     hartree contribution      =      57.96293268 Ry
     xc contribution           =     -11.45758229 Ry
     ewald contribution        =       7.31147614 Ry

     charge density inside the Wigner-Seitz cell:   14.00000000

     reference position (x0):         0.00000000    0.00000000    0.00000000 bohr

     Dipole moments (with respect to x0):
     Elect  -0.0000  -0.0000   0.0001 au (Ha),  -0.0001  -0.0000   0.0003 Debye
     Ionic   0.0000   0.0000   0.0000 au (Ha),   0.0000   0.0000   0.0000 Debye
     Total  -0.0000  -0.0000   0.0001 au (Ha),  -0.0001  -0.0000   0.0003 Debye

     Electrons quadrupole moment       -101.37032008 a.u. (Ha)
          Ions quadrupole moment         50.75177425 a.u. (Ha)
         Total quadrupole moment        -50.61854583 a.u. (Ha)

     *********    MAKOV-PAYNE CORRECTION    *********

     Makov-Payne correction with Madelung constant =   2.8373

     Makov-Payne correction     0.00000000 Ry =  0.000 eV (1st order, 1/a0)
                                0.00000000 Ry =  0.000 eV (2nd order, 1/a0^3)
                                0.00000000 Ry =  0.000 eV (total)

!    Total+Makov-Payne energy  =     -60.24480019 Ry
     Corrected vacuum level    =       0.10659706 eV

     convergence has been achieved in   6 iterations

     Writing output data file ./cl2.save
 
     init_run     :      1.36s CPU      1.65s WALL (       1 calls)
     electrons    :     17.61s CPU     17.84s WALL (       1 calls)

     Called by init_run:
     wfcinit      :      0.57s CPU      0.62s WALL (       1 calls)
     potinit      :      0.15s CPU      0.22s WALL (       1 calls)

     Called by electrons:
     c_bands      :     14.85s CPU     14.93s WALL (       7 calls)
     sum_band     :      1.81s CPU      1.83s WALL (       7 calls)
     v_of_rho     :      0.69s CPU      0.75s WALL (       7 calls)
     mix_rho      :      0.09s CPU      0.10s WALL (       7 calls)

     Called by c_bands:
     init_us_2    :      0.00s CPU      0.01s WALL (      15 calls)
     regterg      :     14.84s CPU     14.91s WALL (       7 calls)

     Called by sum_band:

     Called by *egterg:
     h_psi        :     11.17s CPU     11.23s WALL (      45 calls)
     g_psi        :      0.03s CPU      0.03s WALL (      37 calls)
     rdiaghg      :      1.83s CPU      1.88s WALL (      43 calls)

     Called by h_psi:
     h_psi:pot    :     11.09s CPU     11.14s WALL (      45 calls)
     h_psi:calbec :      0.07s CPU      0.08s WALL (      45 calls)
     vloc_psi     :     10.99s CPU     11.02s WALL (      45 calls)
     add_vuspsi   :      0.02s CPU      0.04s WALL (      45 calls)

     General routines
     calbec       :      0.07s CPU      0.07s WALL (      45 calls)
     fft          :      0.73s CPU      0.89s WALL (      78 calls)
     fftw         :     11.92s CPU     11.81s WALL (    2768 calls)
 
     Parallel routines
     fft_scatter  :      9.55s CPU      9.28s WALL (    2846 calls)
 
     PWSCF        :    21.19s CPU        27.27s WALL

 
   This run was terminated on:  21: 2: 7  18Apr2018            

=------------------------------------------------------------------------------=
   JOB DONE.
=------------------------------------------------------------------------------=
