
     Program PWSCF v.6.1 (svn rev. 13369) starts on 22Apr2018 at 22:58:39 

     This program is part of the open-source Quantum ESPRESSO suite
     for quantum simulation of materials; please cite
         "P. Giannozzi et al., J. Phys.:Condens. Matter 21 395502 (2009);
          URL http://www.quantum-espresso.org", 
     in publications or presentations arising from this work. More details at
     http://www.quantum-espresso.org/quote

     Parallel version (MPI & OpenMP), running on      40 processor cores
     Number of MPI processes:                40
     Threads/MPI process:                     1
     R & G space division:  proc/nbgrp/npool/nimage =      40
     Waiting for input...
     Reading input from standard input

     Current dimensions of program PWSCF are:
     Max number of different atomic species (ntypx) = 10
     Max number of k-points (npk) =  40000
     Max angular momentum in pseudopotentials (lmaxx) =  3

     gamma-point specific algorithms are used

     Subspace diagonalization in iterative solution of the eigenvalue problem:
     one sub-group per band group will be used
     scalapack distributed-memory algorithm (size of sub-group:  4*  4 procs)

 
     Parallelization info
     --------------------
     sticks:   dense  smooth     PW     G-vecs:    dense   smooth      PW
     Min         608     608    151                71460    71460    8926
     Max         610     610    158                71470    71470    8932
     Sum       24345   24345   6093              2858633  2858633  357213
 


     bravais-lattice index     =            1
     lattice parameter (alat)  =      30.0000  a.u.
     unit-cell volume          =   27000.0000 (a.u.)^3
     number of atoms/cell      =            6
     number of atomic types    =            2
     number of electrons       =        12.00
     number of Kohn-Sham states=          100
     kinetic-energy cutoff     =      85.0000  Ry
     charge density cutoff     =     340.0000  Ry
     convergence threshold     =      1.0E-06
     mixing beta               =       0.4000
     number of iterations used =            8  plain     mixing
     Exchange-correlation      = PBE ( 1  4  3  4 0 0)

     celldm(1)=  30.000000  celldm(2)=   0.000000  celldm(3)=   0.000000
     celldm(4)=   0.000000  celldm(5)=   0.000000  celldm(6)=   0.000000

     crystal axes: (cart. coord. in units of alat)
               a(1) = (   1.000000   0.000000   0.000000 )  
               a(2) = (   0.000000   1.000000   0.000000 )  
               a(3) = (   0.000000   0.000000   1.000000 )  

     reciprocal axes: (cart. coord. in units 2 pi/alat)
               b(1) = (  1.000000  0.000000  0.000000 )  
               b(2) = (  0.000000  1.000000  0.000000 )  
               b(3) = (  0.000000  0.000000  1.000000 )  


     PseudoPot. # 1 for C  read from file:
     ~/PseudoPotential/upf/C_ONCV_PBE-1.0.upf
     MD5 check sum: Not computed, couldn't open file
     Pseudo is Norm-conserving, Zval =  4.0
     Generated using ONCVPSP code by D. R. Hamann
     Using radial grid of  602 points,  4 beta functions with: 
                l(1) =   0
                l(2) =   0
                l(3) =   1
                l(4) =   1

     PseudoPot. # 2 for H  read from file:
     ~/PseudoPotential/upf/H_ONCV_PBE-1.0.upf
     MD5 check sum: Not computed, couldn't open file
     Pseudo is Norm-conserving, Zval =  1.0
     Generated using ONCVPSP code by D. R. Hamann
     Using radial grid of  602 points,  2 beta functions with: 
                l(1) =   0
                l(2) =   0

     atomic species   valence    mass     pseudopotential
        C              4.00     1.00000     C ( 1.00)
        H              1.00     1.00000     H ( 1.00)

     No symmetry found



   Cartesian axes

     site n.     atom                  positions (alat units)
         1           C   tau(   1) = (   0.0000000   0.0000000   0.0420451  )
         2           C   tau(   2) = (   0.0000000   0.0000000  -0.0420451  )
         3           H   tau(   3) = (   0.0000000   0.0581300   0.0779635  )
         4           H   tau(   4) = (   0.0000000  -0.0581300   0.0779635  )
         5           H   tau(   5) = (   0.0000000   0.0581300  -0.0779635  )
         6           H   tau(   6) = (   0.0000000  -0.0581300  -0.0779635  )

     number of k points=     1
                       cart. coord. in units 2pi/alat
        k(    1) = (   0.0000000   0.0000000   0.0000000), wk =   2.0000000

     Dense  grid:  1429317 G-vectors     FFT dimensions: ( 180, 180, 180)

     Estimated max dynamical RAM per process >      61.86MB

     Estimated total allocated dynamical RAM >    2474.41MB

     Initial potential from superposition of free atoms
     Check: negative starting charge=   -0.000349

     starting charge   11.97753, renormalised to   12.00000

     negative rho (up, down):  3.492E-04 0.000E+00
     Starting wfc are random

     total cpu time spent up to now is        5.1 secs

     per-process dynamical memory:    69.2 Mb

     Self-consistent Calculation

     iteration #  1     ecut=    85.00 Ry     beta=0.40
     Davidson diagonalization with overlap
     ethr =  1.00E-02,  avg # of iterations = 15.0

     negative rho (up, down):  1.731E-04 0.000E+00

     total cpu time spent up to now is       14.9 secs

     total energy              =     -27.40951957 Ry
     Harris-Foulkes estimate   =     -27.76476618 Ry
     estimated scf accuracy    <       0.76232031 Ry

     iteration #  2     ecut=    85.00 Ry     beta=0.40
     Davidson diagonalization with overlap
     ethr =  6.35E-03,  avg # of iterations =  1.0

     negative rho (up, down):  4.849E-05 0.000E+00

     total cpu time spent up to now is       17.1 secs

     total energy              =     -27.47286435 Ry
     Harris-Foulkes estimate   =     -27.49922044 Ry
     estimated scf accuracy    <       0.07151961 Ry

     iteration #  3     ecut=    85.00 Ry     beta=0.40
     Davidson diagonalization with overlap
     ethr =  5.96E-04,  avg # of iterations =  5.0

     negative rho (up, down):  3.316E-06 0.000E+00

     total cpu time spent up to now is       19.6 secs

     total energy              =     -27.47131294 Ry
     Harris-Foulkes estimate   =     -27.47699219 Ry
     estimated scf accuracy    <       0.01332709 Ry

     iteration #  4     ecut=    85.00 Ry     beta=0.40
     Davidson diagonalization with overlap
     ethr =  1.11E-04,  avg # of iterations =  5.0

     negative rho (up, down):  9.631E-07 0.000E+00

     total cpu time spent up to now is       22.2 secs

     total energy              =     -27.47228276 Ry
     Harris-Foulkes estimate   =     -27.47233605 Ry
     estimated scf accuracy    <       0.00014394 Ry

     iteration #  5     ecut=    85.00 Ry     beta=0.40
     Davidson diagonalization with overlap
     ethr =  1.20E-06,  avg # of iterations = 10.0

     negative rho (up, down):  1.246E-07 0.000E+00

     total cpu time spent up to now is       26.3 secs

     total energy              =     -27.47231246 Ry
     Harris-Foulkes estimate   =     -27.47231531 Ry
     estimated scf accuracy    <       0.00001846 Ry

     iteration #  6     ecut=    85.00 Ry     beta=0.40
     Davidson diagonalization with overlap
     ethr =  1.54E-07,  avg # of iterations =  1.0

     total cpu time spent up to now is       28.5 secs

     total energy              =     -27.47231444 Ry
     Harris-Foulkes estimate   =     -27.47231443 Ry
     estimated scf accuracy    <       0.00000114 Ry

     iteration #  7     ecut=    85.00 Ry     beta=0.40
     Davidson diagonalization with overlap
     ethr =  9.49E-09,  avg # of iterations =  2.0

     total cpu time spent up to now is       30.8 secs

     End of self-consistent calculation

          k = 0.0000 0.0000 0.0000 (178607 PWs)   bands (ev):

   -18.7120 -14.2060 -11.4165 -10.1468  -8.4807  -6.6846  -1.0401  -0.3003
     0.2425   0.2879   0.2888   0.4856   0.5878   0.6061   0.8900   0.9023
     1.0149   1.0277   1.0635   1.1064   1.1691   1.1741   1.1875   1.2185
     1.2194   1.2231   1.6514   1.6545   1.6735   1.7010   1.7098   1.7318
     1.7643   1.7667   1.9226   2.0151   2.1095   2.1775   2.2654   2.3982
     2.5839   2.6263   2.6268   2.6457   2.6624   2.6916   2.8088   2.8143
     2.8226   2.8700   2.8850   2.9073   2.9435   2.9507   2.9775   2.9924
     3.0000   3.0021   3.0059   3.0239   3.0269   3.0272   3.0273   3.0374
     3.3190   3.3282   3.3400   3.3847   3.3964   3.4149   3.4647   3.4652
     3.4822   3.4887   3.4923   3.5533   3.5620   3.5690   3.5699   3.5734
     3.5847   3.5861   3.5876   3.5878   3.5950   3.6021   3.6053   3.6521
     4.0872   4.1945   4.3481   4.4097   4.5036   4.5698   4.6166   4.6648
     4.6674   4.6986   4.7404   4.7483

     highest occupied, lowest unoccupied level (ev):    -6.6846   -1.0401

!    total energy              =     -27.47231454 Ry
     Harris-Foulkes estimate   =     -27.47231463 Ry
     estimated scf accuracy    <       0.00000025 Ry

     The total energy is the sum of the following terms:

     one-electron contribution =     -88.74850070 Ry
     hartree contribution      =      45.56757702 Ry
     xc contribution           =      -9.74169816 Ry
     ewald contribution        =      25.45030730 Ry

     charge density inside the Wigner-Seitz cell:   12.00000000

     reference position (x0):         0.00000000    0.00000000    0.00000000 bohr

     Dipole moments (with respect to x0):
     Elect   0.0000  -0.0000  -0.0004 au (Ha),   0.0000  -0.0000  -0.0011 Debye
     Ionic   0.0000   0.0000   0.0000 au (Ha),   0.0000   0.0000   0.0000 Debye
     Total   0.0000  -0.0000  -0.0004 au (Ha),   0.0000  -0.0000  -0.0011 Debye

     Electrons quadrupole moment        -76.57008279 a.u. (Ha)
          Ions quadrupole moment         46.77476332 a.u. (Ha)
         Total quadrupole moment        -29.79531947 a.u. (Ha)

     *********    MAKOV-PAYNE CORRECTION    *********

     Makov-Payne correction with Madelung constant =   2.8373

     Makov-Payne correction     0.00000000 Ry =  0.000 eV (1st order, 1/a0)
                                0.00000000 Ry =  0.000 eV (2nd order, 1/a0^3)
                                0.00000000 Ry =  0.000 eV (total)

!    Total+Makov-Payne energy  =     -27.47231454 Ry
     Corrected vacuum level    =       0.06293994 eV

     convergence has been achieved in   7 iterations

     Writing output data file ./c2h4.save
 
     init_run     :      1.79s CPU      2.85s WALL (       1 calls)
     electrons    :     24.39s CPU     26.54s WALL (       1 calls)

     Called by init_run:
     wfcinit      :      0.75s CPU      1.06s WALL (       1 calls)
     potinit      :      0.31s CPU      0.58s WALL (       1 calls)

     Called by electrons:
     c_bands      :     20.17s CPU     20.48s WALL (       7 calls)
     sum_band     :      2.60s CPU      2.76s WALL (       7 calls)
     v_of_rho     :      1.34s CPU      2.46s WALL (       8 calls)
     mix_rho      :      0.18s CPU      0.31s WALL (       7 calls)

     Called by c_bands:
     init_us_2    :      0.02s CPU      0.03s WALL (      15 calls)
     regterg      :     20.11s CPU     20.42s WALL (       7 calls)

     Called by sum_band:

     Called by *egterg:
     h_psi        :     15.68s CPU     15.74s WALL (      47 calls)
     g_psi        :      0.06s CPU      0.06s WALL (      39 calls)
     rdiaghg      :      1.28s CPU      1.58s WALL (      46 calls)

     Called by h_psi:
     h_psi:pot    :     15.47s CPU     15.53s WALL (      47 calls)
     h_psi:calbec :      0.17s CPU      0.16s WALL (      47 calls)
     vloc_psi     :     15.23s CPU     15.27s WALL (      47 calls)
     add_vuspsi   :      0.07s CPU      0.10s WALL (      47 calls)

     General routines
     calbec       :      0.17s CPU      0.16s WALL (      47 calls)
     fft          :      1.28s CPU      2.62s WALL (      87 calls)
     fftw         :     14.54s CPU     14.46s WALL (    2970 calls)
 
     Parallel routines
     fft_scatter  :      9.17s CPU      9.33s WALL (    3057 calls)
 
     PWSCF        :    28.84s CPU        36.90s WALL

 
   This run was terminated on:  22:59:16  22Apr2018            

=------------------------------------------------------------------------------=
   JOB DONE.
=------------------------------------------------------------------------------=
