
     Program PWSCF v.6.1 (svn rev. 13369) starts on 18Apr2018 at 21:14:26 

     This program is part of the open-source Quantum ESPRESSO suite
     for quantum simulation of materials; please cite
         "P. Giannozzi et al., J. Phys.:Condens. Matter 21 395502 (2009);
          URL http://www.quantum-espresso.org", 
     in publications or presentations arising from this work. More details at
     http://www.quantum-espresso.org/quote

     Parallel version (MPI & OpenMP), running on      80 processor cores
     Number of MPI processes:                80
     Threads/MPI process:                     1
     R & G space division:  proc/nbgrp/npool/nimage =      80
     Waiting for input...
     Reading input from standard input

     Current dimensions of program PWSCF are:
     Max number of different atomic species (ntypx) = 10
     Max number of k-points (npk) =  40000
     Max angular momentum in pseudopotentials (lmaxx) =  3

     gamma-point specific algorithms are used

     Subspace diagonalization in iterative solution of the eigenvalue problem:
     one sub-group per band group will be used
     scalapack distributed-memory algorithm (size of sub-group:  6*  6 procs)

 
     Parallelization info
     --------------------
     sticks:   dense  smooth     PW     G-vecs:    dense   smooth      PW
     Min         303     303     75                35728    35728    4455
     Max         306     306     80                35736    35736    4472
     Sum       24345   24345   6093              2858633  2858633  357213
 


     bravais-lattice index     =            1
     lattice parameter (alat)  =      30.0000  a.u.
     unit-cell volume          =   27000.0000 (a.u.)^3
     number of atoms/cell      =            8
     number of atomic types    =            2
     number of electrons       =        14.00
     number of Kohn-Sham states=          100
     kinetic-energy cutoff     =      85.0000  Ry
     charge density cutoff     =     340.0000  Ry
     convergence threshold     =      1.0E-06
     mixing beta               =       0.4000
     number of iterations used =            8  plain     mixing
     Exchange-correlation      = PBE ( 1  4  3  4 0 0)

     celldm(1)=  30.000000  celldm(2)=   0.000000  celldm(3)=   0.000000
     celldm(4)=   0.000000  celldm(5)=   0.000000  celldm(6)=   0.000000

     crystal axes: (cart. coord. in units of alat)
               a(1) = (   1.000000   0.000000   0.000000 )  
               a(2) = (   0.000000   1.000000   0.000000 )  
               a(3) = (   0.000000   0.000000   1.000000 )  

     reciprocal axes: (cart. coord. in units 2 pi/alat)
               b(1) = (  1.000000  0.000000  0.000000 )  
               b(2) = (  0.000000  1.000000  0.000000 )  
               b(3) = (  0.000000  0.000000  1.000000 )  


     PseudoPot. # 1 for Si read from file:
     ~/PseudoPotential/upf/Si_ONCV_PBE-1.0.upf
     MD5 check sum: Not computed, couldn't open file
     Pseudo is Norm-conserving, Zval =  4.0
     Generated using ONCVPSP code by D. R. Hamann
     Using radial grid of  602 points,  4 beta functions with: 
                l(1) =   0
                l(2) =   0
                l(3) =   1
                l(4) =   1

     PseudoPot. # 2 for H  read from file:
     ~/PseudoPotential/upf/H_ONCV_PBE-1.0.upf
     MD5 check sum: Not computed, couldn't open file
     Pseudo is Norm-conserving, Zval =  1.0
     Generated using ONCVPSP code by D. R. Hamann
     Using radial grid of  602 points,  2 beta functions with: 
                l(1) =   0
                l(2) =   0

     atomic species   valence    mass     pseudopotential
        Si             4.00     1.00000     Si( 1.00)
        H              1.00     1.00000     H ( 1.00)

     No symmetry found



   Cartesian axes

     site n.     atom                  positions (alat units)
         1           Si  tau(   1) = (   0.0000000   0.0000000   0.0735534  )
         2           Si  tau(   2) = (   0.0000000   0.0000000  -0.0735534  )
         3           H   tau(   3) = (   0.0000000   0.0877643   0.1062039  )
         4           H   tau(   4) = (  -0.0760061  -0.0438821   0.1062039  )
         5           H   tau(   5) = (   0.0760061  -0.0438821   0.1062039  )
         6           H   tau(   6) = (   0.0000000  -0.0877643  -0.1062039  )
         7           H   tau(   7) = (  -0.0760061   0.0438821  -0.1062039  )
         8           H   tau(   8) = (   0.0760061   0.0438821  -0.1062039  )

     number of k points=     1
                       cart. coord. in units 2pi/alat
        k(    1) = (   0.0000000   0.0000000   0.0000000), wk =   2.0000000

     Dense  grid:  1429317 G-vectors     FFT dimensions: ( 180, 180, 180)

     Estimated max dynamical RAM per process >      49.07MB

     Estimated total allocated dynamical RAM >    3925.74MB

     Initial potential from superposition of free atoms
     Check: negative starting charge=   -0.001770

     starting charge   13.89475, renormalised to   14.00000

     negative rho (up, down):  1.783E-03 0.000E+00
     Starting wfc are random

     total cpu time spent up to now is        2.7 secs

     per-process dynamical memory:    67.4 Mb

     Self-consistent Calculation

     iteration #  1     ecut=    85.00 Ry     beta=0.40
     Davidson diagonalization with overlap
     ethr =  1.00E-02,  avg # of iterations = 14.0

     negative rho (up, down):  9.440E-04 0.000E+00

     total cpu time spent up to now is        9.3 secs

     total energy              =     -22.76836307 Ry
     Harris-Foulkes estimate   =     -22.88831359 Ry
     estimated scf accuracy    <       0.41240215 Ry

     iteration #  2     ecut=    85.00 Ry     beta=0.40
     Davidson diagonalization with overlap
     ethr =  2.95E-03,  avg # of iterations =  1.0

     negative rho (up, down):  1.596E-04 0.000E+00

     total cpu time spent up to now is       10.8 secs

     total energy              =     -22.73583853 Ry
     Harris-Foulkes estimate   =     -22.77815484 Ry
     estimated scf accuracy    <       0.09889029 Ry

     iteration #  3     ecut=    85.00 Ry     beta=0.40
     Davidson diagonalization with overlap
     ethr =  7.06E-04,  avg # of iterations =  2.0

     negative rho (up, down):  6.032E-05 0.000E+00

     total cpu time spent up to now is       12.4 secs

     total energy              =     -22.74554987 Ry
     Harris-Foulkes estimate   =     -22.74566145 Ry
     estimated scf accuracy    <       0.00086887 Ry

     iteration #  4     ecut=    85.00 Ry     beta=0.40
     Davidson diagonalization with overlap
     ethr =  6.21E-06,  avg # of iterations = 10.0

     negative rho (up, down):  1.707E-05 0.000E+00

     total cpu time spent up to now is       15.6 secs

     total energy              =     -22.74574693 Ry
     Harris-Foulkes estimate   =     -22.74572087 Ry
     estimated scf accuracy    <       0.00013208 Ry

     iteration #  5     ecut=    85.00 Ry     beta=0.40
     Davidson diagonalization with overlap
     ethr =  9.43E-07,  avg # of iterations =  2.0

     negative rho (up, down):  4.262E-07 0.000E+00

     total cpu time spent up to now is       17.1 secs

     total energy              =     -22.74576174 Ry
     Harris-Foulkes estimate   =     -22.74575471 Ry
     estimated scf accuracy    <       0.00001568 Ry

     iteration #  6     ecut=    85.00 Ry     beta=0.40
     Davidson diagonalization with overlap
     ethr =  1.12E-07,  avg # of iterations =  3.0

     total cpu time spent up to now is       18.7 secs

     End of self-consistent calculation

          k = 0.0000 0.0000 0.0000 (178607 PWs)   bands (ev):

   -13.9354 -12.3334  -8.7410  -8.7410  -8.1100  -8.1100  -7.1372  -0.5542
    -0.5304  -0.5303  -0.4496   0.1737   0.1931   0.2276   0.3982   0.3984
     0.5397   0.6211   0.7744   0.8727   0.9895   1.0128   1.0271   1.0412
     1.0655   1.2078   1.2146   1.2335   1.2611   1.3333   1.3768   1.5434
     1.6396   1.6448   1.6942   1.6943   1.7774   1.7815   1.9295   1.9668
     2.0155   2.0655   2.1713   2.3738   2.4333   2.4541   2.5086   2.5758
     2.6333   2.7148   2.7275   2.8558   2.8637   2.9201   2.9222   2.9266
     2.9272   2.9353   2.9955   3.0035   3.0119   3.0478   3.0557   3.0608
     3.0614   3.0634   3.0658   3.0859   3.1044   3.1931   3.3030   3.3268
     3.3625   3.3858   3.3955   3.4970   3.5183   3.5373   3.5458   3.5538
     3.5655   3.5748   3.5816   3.5903   3.6112   3.6167   3.6206   3.6219
     3.6238   3.6528   3.6560   3.7209   3.7492   3.8526   3.9511   4.1884
     4.2569   4.4700   4.6063   4.6330

     highest occupied, lowest unoccupied level (ev):    -7.1372   -0.5542

!    total energy              =     -22.74576333 Ry
     Harris-Foulkes estimate   =     -22.74576328 Ry
     estimated scf accuracy    <       0.00000034 Ry

     The total energy is the sum of the following terms:

     one-electron contribution =     -67.73579670 Ry
     hartree contribution      =      34.68502055 Ry
     xc contribution           =      -8.90235317 Ry
     ewald contribution        =      19.20736599 Ry

     charge density inside the Wigner-Seitz cell:   14.00000000

     reference position (x0):         0.00000000    0.00000000    0.00000000 bohr

     Dipole moments (with respect to x0):
     Elect  -0.0000   0.0000   0.0000 au (Ha),  -0.0001   0.0001   0.0000 Debye
     Ionic   0.0000   0.0000   0.0000 au (Ha),   0.0000   0.0000   0.0000 Debye
     Total  -0.0000   0.0000   0.0000 au (Ha),  -0.0001   0.0001   0.0000 Debye

     Electrons quadrupole moment       -205.82159648 a.u. (Ha)
          Ions quadrupole moment        141.45460685 a.u. (Ha)
         Total quadrupole moment        -64.36698963 a.u. (Ha)

     *********    MAKOV-PAYNE CORRECTION    *********

     Makov-Payne correction with Madelung constant =   2.8373

     Makov-Payne correction     0.00000000 Ry =  0.000 eV (1st order, 1/a0)
                                0.00000000 Ry =  0.000 eV (2nd order, 1/a0^3)
                                0.00000000 Ry =  0.000 eV (total)

!    Total+Makov-Payne energy  =     -22.74576333 Ry
     Corrected vacuum level    =       0.13567715 eV

     convergence has been achieved in   6 iterations

     Writing output data file ./si2h6.save
 
     init_run     :      1.46s CPU      1.73s WALL (       1 calls)
     electrons    :     16.11s CPU     16.37s WALL (       1 calls)

     Called by init_run:
     wfcinit      :      0.55s CPU      0.61s WALL (       1 calls)
     potinit      :      0.20s CPU      0.26s WALL (       1 calls)

     Called by electrons:
     c_bands      :     13.59s CPU     13.68s WALL (       6 calls)
     sum_band     :      1.56s CPU      1.58s WALL (       6 calls)
     v_of_rho     :      0.70s CPU      0.75s WALL (       7 calls)
     mix_rho      :      0.09s CPU      0.09s WALL (       6 calls)

     Called by c_bands:
     init_us_2    :      0.00s CPU      0.01s WALL (      13 calls)
     regterg      :     13.57s CPU     13.66s WALL (       6 calls)

     Called by sum_band:

     Called by *egterg:
     h_psi        :     10.29s CPU     10.35s WALL (      39 calls)
     g_psi        :      0.02s CPU      0.02s WALL (      32 calls)
     rdiaghg      :      1.63s CPU      1.68s WALL (      38 calls)

     Called by h_psi:
     h_psi:pot    :     10.21s CPU     10.27s WALL (      39 calls)
     h_psi:calbec :      0.08s CPU      0.09s WALL (      39 calls)
     vloc_psi     :     10.10s CPU     10.14s WALL (      39 calls)
     add_vuspsi   :      0.02s CPU      0.05s WALL (      39 calls)

     General routines
     calbec       :      0.08s CPU      0.08s WALL (      39 calls)
     fft          :      0.76s CPU      0.89s WALL (      76 calls)
     fftw         :     10.88s CPU     10.81s WALL (    2512 calls)
 
     Parallel routines
     fft_scatter  :      8.87s CPU      8.63s WALL (    2588 calls)
 
     PWSCF        :    19.89s CPU        24.10s WALL

 
   This run was terminated on:  21:14:51  18Apr2018            

=------------------------------------------------------------------------------=
   JOB DONE.
=------------------------------------------------------------------------------=
