
     Program PWSCF v.6.1 (svn rev. 13369) starts on 22Jan2019 at 13:32:19 

     This program is part of the open-source Quantum ESPRESSO suite
     for quantum simulation of materials; please cite
         "P. Giannozzi et al., J. Phys.:Condens. Matter 21 395502 (2009);
          URL http://www.quantum-espresso.org", 
     in publications or presentations arising from this work. More details at
     http://www.quantum-espresso.org/quote

     Parallel version (MPI & OpenMP), running on      40 processor cores
     Number of MPI processes:                40
     Threads/MPI process:                     1
     R & G space division:  proc/nbgrp/npool/nimage =      40
     Waiting for input...
     Reading input from standard input

     Current dimensions of program PWSCF are:
     Max number of different atomic species (ntypx) = 10
     Max number of k-points (npk) =  40000
     Max angular momentum in pseudopotentials (lmaxx) =  3

     gamma-point specific algorithms are used

     Subspace diagonalization in iterative solution of the eigenvalue problem:
     one sub-group per band group will be used
     scalapack distributed-memory algorithm (size of sub-group:  4*  4 procs)

 
     Parallelization info
     --------------------
     sticks:   dense  smooth     PW     G-vecs:    dense   smooth      PW
     Min         608     608    151                71460    71460    8926
     Max         610     610    158                71470    71470    8932
     Sum       24345   24345   6093              2858633  2858633  357213
 


     bravais-lattice index     =            1
     lattice parameter (alat)  =      30.0000  a.u.
     unit-cell volume          =   27000.0000 (a.u.)^3
     number of atoms/cell      =            4
     number of atomic types    =            2
     number of electrons       =        10.00
     number of Kohn-Sham states=          100
     kinetic-energy cutoff     =      85.0000  Ry
     charge density cutoff     =     340.0000  Ry
     convergence threshold     =      1.0E-06
     mixing beta               =       0.4000
     number of iterations used =            8  plain     mixing
     Exchange-correlation      = PBE ( 1  4  3  4 0 0)

     celldm(1)=  30.000000  celldm(2)=   0.000000  celldm(3)=   0.000000
     celldm(4)=   0.000000  celldm(5)=   0.000000  celldm(6)=   0.000000

     crystal axes: (cart. coord. in units of alat)
               a(1) = (   1.000000   0.000000   0.000000 )  
               a(2) = (   0.000000   1.000000   0.000000 )  
               a(3) = (   0.000000   0.000000   1.000000 )  

     reciprocal axes: (cart. coord. in units 2 pi/alat)
               b(1) = (  1.000000  0.000000  0.000000 )  
               b(2) = (  0.000000  1.000000  0.000000 )  
               b(3) = (  0.000000  0.000000  1.000000 )  


     PseudoPot. # 1 for C  read from file:
     ~/PseudoPotential/upf/C_ONCV_PBE-1.0.upf
     MD5 check sum: Not computed, couldn't open file
     Pseudo is Norm-conserving, Zval =  4.0
     Generated using ONCVPSP code by D. R. Hamann
     Using radial grid of  602 points,  4 beta functions with: 
                l(1) =   0
                l(2) =   0
                l(3) =   1
                l(4) =   1

     PseudoPot. # 2 for H  read from file:
     ~/PseudoPotential/upf/H_ONCV_PBE-1.0.upf
     MD5 check sum: Not computed, couldn't open file
     Pseudo is Norm-conserving, Zval =  1.0
     Generated using ONCVPSP code by D. R. Hamann
     Using radial grid of  602 points,  2 beta functions with: 
                l(1) =   0
                l(2) =   0

     atomic species   valence    mass     pseudopotential
        C              4.00     1.00000     C ( 1.00)
        H              1.00     1.00000     H ( 1.00)

     No symmetry found



   Cartesian axes

     site n.     atom                  positions (alat units)
         1           C   tau(   1) = (   0.0000000   0.0000000   0.0383035  )
         2           C   tau(   2) = (   0.0000000   0.0000000  -0.0383035  )
         3           H   tau(   3) = (   0.0000000   0.0000000  -0.1054461  )
         4           H   tau(   4) = (   0.0000000   0.0000000   0.1054461  )

     number of k points=     1
                       cart. coord. in units 2pi/alat
        k(    1) = (   0.0000000   0.0000000   0.0000000), wk =   2.0000000

     Dense  grid:  1429317 G-vectors     FFT dimensions: ( 180, 180, 180)

     Estimated max dynamical RAM per process >      61.58MB

     Estimated total allocated dynamical RAM >    2463.39MB

     Initial potential from superposition of free atoms
     Check: negative starting charge=   -0.000350

     starting charge    9.98180, renormalised to   10.00000

     negative rho (up, down):  3.508E-04 0.000E+00
     Starting wfc are random

     total cpu time spent up to now is        2.5 secs

     per-process dynamical memory:    68.8 Mb

     Self-consistent Calculation

     iteration #  1     ecut=    85.00 Ry     beta=0.40
     Davidson diagonalization with overlap
     ethr =  1.00E-02,  avg # of iterations = 15.0

     negative rho (up, down):  1.409E-04 0.000E+00

     total cpu time spent up to now is       12.4 secs

     total energy              =     -24.92560784 Ry
     Harris-Foulkes estimate   =     -25.21694945 Ry
     estimated scf accuracy    <       0.60566559 Ry

     iteration #  2     ecut=    85.00 Ry     beta=0.40
     Davidson diagonalization with overlap
     ethr =  6.06E-03,  avg # of iterations =  1.0

     negative rho (up, down):  3.532E-05 0.000E+00

     total cpu time spent up to now is       14.6 secs

     total energy              =     -24.96904894 Ry
     Harris-Foulkes estimate   =     -24.99190278 Ry
     estimated scf accuracy    <       0.05360281 Ry

     iteration #  3     ecut=    85.00 Ry     beta=0.40
     Davidson diagonalization with overlap
     ethr =  5.36E-04,  avg # of iterations =  2.0

     negative rho (up, down):  2.765E-06 0.000E+00

     total cpu time spent up to now is       16.9 secs

     total energy              =     -24.97261173 Ry
     Harris-Foulkes estimate   =     -24.97509591 Ry
     estimated scf accuracy    <       0.00695788 Ry

     iteration #  4     ecut=    85.00 Ry     beta=0.40
     Davidson diagonalization with overlap
     ethr =  6.96E-05,  avg # of iterations =  5.0

     negative rho (up, down):  3.122E-07 0.000E+00

     total cpu time spent up to now is       19.5 secs

     total energy              =     -24.97309919 Ry
     Harris-Foulkes estimate   =     -24.97324715 Ry
     estimated scf accuracy    <       0.00027327 Ry

     iteration #  5     ecut=    85.00 Ry     beta=0.40
     Davidson diagonalization with overlap
     ethr =  2.73E-06,  avg # of iterations = 12.0

     negative rho (up, down):  2.214E-08 0.000E+00

     total cpu time spent up to now is       23.7 secs

     total energy              =     -24.97315172 Ry
     Harris-Foulkes estimate   =     -24.97320097 Ry
     estimated scf accuracy    <       0.00009200 Ry

     iteration #  6     ecut=    85.00 Ry     beta=0.40
     Davidson diagonalization with overlap
     ethr =  9.20E-07,  avg # of iterations =  2.0

     total cpu time spent up to now is       25.9 secs

     End of self-consistent calculation

          k = 0.0000 0.0000 0.0000 (178607 PWs)   bands (ev):

   -18.4784 -14.0487 -12.1643  -7.0974  -7.0974  -0.4541  -0.4541  -0.2096
     0.1362   0.3395   0.4876   0.4877   0.5472   0.6145   0.8232   1.0242
     1.0246   1.0709   1.0915   1.1435   1.1862   1.1864   1.2021   1.2100
     1.2101   1.2201   1.5752   1.6544   1.7213   1.7218   1.7285   1.7708
     1.7710   1.7725   1.7922   2.1892   2.2053   2.2610   2.2613   2.3967
     2.4287   2.5884   2.7248   2.7575   2.7853   2.7858   2.8697   2.8798
     2.8800   2.8833   2.9039   2.9042   2.9573   2.9575   2.9785   2.9787
     2.9899   3.0001   3.0012   3.0149   3.0151   3.0203   3.0253   3.0491
     3.1987   3.3568   3.3857   3.4108   3.4683   3.4684   3.4714   3.4720
     3.5155   3.5304   3.5307   3.5474   3.5522   3.5713   3.5718   3.5747
     3.5748   3.5824   3.5895   3.5896   3.5931   3.5944   3.6030   3.6896
     4.0113   4.0727   4.5380   4.5749   4.5752   4.6060   4.6434   4.7213
     4.7216   4.7353   4.7354   4.8176

     highest occupied, lowest unoccupied level (ev):    -7.0974   -0.4541

!    total energy              =     -24.97316951 Ry
     Harris-Foulkes estimate   =     -24.97316976 Ry
     estimated scf accuracy    <       0.00000048 Ry

     The total energy is the sum of the following terms:

     one-electron contribution =     -68.53799210 Ry
     hartree contribution      =      35.21543491 Ry
     xc contribution           =      -8.13511510 Ry
     ewald contribution        =      16.48450278 Ry

     charge density inside the Wigner-Seitz cell:   10.00000000

     reference position (x0):         0.00000000    0.00000000    0.00000000 bohr

     Dipole moments (with respect to x0):
     Elect   0.0000   0.0000   0.0010 au (Ha),   0.0000   0.0000   0.0025 Debye
     Ionic   0.0000   0.0000   0.0000 au (Ha),   0.0000   0.0000   0.0000 Debye
     Total   0.0000   0.0000   0.0010 au (Ha),   0.0000   0.0000   0.0025 Debye

     Electrons quadrupole moment        -55.95401213 a.u. (Ha)
          Ions quadrupole moment         30.57751185 a.u. (Ha)
         Total quadrupole moment        -25.37650027 a.u. (Ha)

     *********    MAKOV-PAYNE CORRECTION    *********

     Makov-Payne correction with Madelung constant =   2.8373

     Makov-Payne correction     0.00000000 Ry =  0.000 eV (1st order, 1/a0)
                                0.00000000 Ry =  0.000 eV (2nd order, 1/a0^3)
                                0.00000000 Ry =  0.000 eV (total)

!    Total+Makov-Payne energy  =     -24.97316951 Ry
     Corrected vacuum level    =       0.05334270 eV

     convergence has been achieved in   6 iterations

     Writing output data file ./c2h2.save
 
     init_run     :      1.63s CPU      1.94s WALL (       1 calls)
     electrons    :     22.27s CPU     23.79s WALL (       1 calls)

     Called by init_run:
     wfcinit      :      0.69s CPU      0.71s WALL (       1 calls)
     potinit      :      0.31s CPU      0.48s WALL (       1 calls)

     Called by electrons:
     c_bands      :     18.62s CPU     18.95s WALL (       6 calls)
     sum_band     :      2.23s CPU      2.38s WALL (       6 calls)
     v_of_rho     :      1.17s CPU      2.15s WALL (       7 calls)
     mix_rho      :      0.15s CPU      0.20s WALL (       6 calls)

     Called by c_bands:
     init_us_2    :      0.01s CPU      0.02s WALL (      13 calls)
     regterg      :     18.58s CPU     18.91s WALL (       6 calls)

     Called by sum_band:

     Called by *egterg:
     h_psi        :     14.38s CPU     14.48s WALL (      44 calls)
     g_psi        :      0.06s CPU      0.06s WALL (      37 calls)
     rdiaghg      :      1.25s CPU      1.28s WALL (      43 calls)

     Called by h_psi:
     h_psi:pot    :     14.19s CPU     14.30s WALL (      44 calls)
     h_psi:calbec :      0.13s CPU      0.12s WALL (      44 calls)
     vloc_psi     :     13.99s CPU     14.10s WALL (      44 calls)
     add_vuspsi   :      0.06s CPU      0.08s WALL (      44 calls)

     General routines
     calbec       :      0.13s CPU      0.12s WALL (      44 calls)
     fft          :      1.12s CPU      2.09s WALL (      76 calls)
     fftw         :     13.40s CPU     13.30s WALL (    2700 calls)
 
     Parallel routines
     fft_scatter  :      8.55s CPU      8.61s WALL (    2776 calls)
 
     PWSCF        :    25.73s CPU        31.22s WALL

 
   This run was terminated on:  13:32:50  22Jan2019            

=------------------------------------------------------------------------------=
   JOB DONE.
=------------------------------------------------------------------------------=
