
     Program PWSCF v.6.1 (svn rev. 13369) starts on 18Apr2018 at 21:13:29 

     This program is part of the open-source Quantum ESPRESSO suite
     for quantum simulation of materials; please cite
         "P. Giannozzi et al., J. Phys.:Condens. Matter 21 395502 (2009);
          URL http://www.quantum-espresso.org", 
     in publications or presentations arising from this work. More details at
     http://www.quantum-espresso.org/quote

     Parallel version (MPI & OpenMP), running on      80 processor cores
     Number of MPI processes:                80
     Threads/MPI process:                     1
     R & G space division:  proc/nbgrp/npool/nimage =      80
     Waiting for input...
     Reading input from standard input

     Current dimensions of program PWSCF are:
     Max number of different atomic species (ntypx) = 10
     Max number of k-points (npk) =  40000
     Max angular momentum in pseudopotentials (lmaxx) =  3

     gamma-point specific algorithms are used

     Subspace diagonalization in iterative solution of the eigenvalue problem:
     one sub-group per band group will be used
     scalapack distributed-memory algorithm (size of sub-group:  6*  6 procs)

 
     Parallelization info
     --------------------
     sticks:   dense  smooth     PW     G-vecs:    dense   smooth      PW
     Min         303     303     75                35728    35728    4455
     Max         306     306     80                35736    35736    4472
     Sum       24345   24345   6093              2858633  2858633  357213
 


     bravais-lattice index     =            1
     lattice parameter (alat)  =      30.0000  a.u.
     unit-cell volume          =   27000.0000 (a.u.)^3
     number of atoms/cell      =            4
     number of atomic types    =            2
     number of electrons       =         8.00
     number of Kohn-Sham states=          100
     kinetic-energy cutoff     =      85.0000  Ry
     charge density cutoff     =     340.0000  Ry
     convergence threshold     =      1.0E-06
     mixing beta               =       0.4000
     number of iterations used =            8  plain     mixing
     Exchange-correlation      = PBE ( 1  4  3  4 0 0)

     celldm(1)=  30.000000  celldm(2)=   0.000000  celldm(3)=   0.000000
     celldm(4)=   0.000000  celldm(5)=   0.000000  celldm(6)=   0.000000

     crystal axes: (cart. coord. in units of alat)
               a(1) = (   1.000000   0.000000   0.000000 )  
               a(2) = (   0.000000   1.000000   0.000000 )  
               a(3) = (   0.000000   0.000000   1.000000 )  

     reciprocal axes: (cart. coord. in units 2 pi/alat)
               b(1) = (  1.000000  0.000000  0.000000 )  
               b(2) = (  0.000000  1.000000  0.000000 )  
               b(3) = (  0.000000  0.000000  1.000000 )  


     PseudoPot. # 1 for P  read from file:
     ~/PseudoPotential/upf/P_ONCV_PBE-1.0.upf
     MD5 check sum: Not computed, couldn't open file
     Pseudo is Norm-conserving, Zval =  5.0
     Generated using ONCVPSP code by D. R. Hamann
     Using radial grid of  602 points,  4 beta functions with: 
                l(1) =   0
                l(2) =   0
                l(3) =   1
                l(4) =   1

     PseudoPot. # 2 for H  read from file:
     ~/PseudoPotential/upf/H_ONCV_PBE-1.0.upf
     MD5 check sum: Not computed, couldn't open file
     Pseudo is Norm-conserving, Zval =  1.0
     Generated using ONCVPSP code by D. R. Hamann
     Using radial grid of  602 points,  2 beta functions with: 
                l(1) =   0
                l(2) =   0

     atomic species   valence    mass     pseudopotential
        P              5.00     1.00000     P ( 1.00)
        H              1.00     1.00000     H ( 1.00)

     No symmetry found



   Cartesian axes

     site n.     atom                  positions (alat units)
         1           P   tau(   1) = (   0.0000000   0.0000000   0.0078499  )
         2           H   tau(   2) = (   0.0000000   0.0756298  -0.0392493  )
         3           H   tau(   3) = (   0.0654973  -0.0378149  -0.0392493  )
         4           H   tau(   4) = (  -0.0654973  -0.0378149  -0.0392493  )

     number of k points=     1
                       cart. coord. in units 2pi/alat
        k(    1) = (   0.0000000   0.0000000   0.0000000), wk =   2.0000000

     Dense  grid:  1429317 G-vectors     FFT dimensions: ( 180, 180, 180)

     Estimated max dynamical RAM per process >      49.07MB

     Estimated total allocated dynamical RAM >    3925.74MB

     Initial potential from superposition of free atoms
     Check: negative starting charge=   -0.000956

     starting charge    7.97119, renormalised to    8.00000

     negative rho (up, down):  9.594E-04 0.000E+00
     Starting wfc are random

     total cpu time spent up to now is        2.7 secs

     per-process dynamical memory:    66.9 Mb

     Self-consistent Calculation

     iteration #  1     ecut=    85.00 Ry     beta=0.40
     Davidson diagonalization with overlap
     ethr =  1.00E-02,  avg # of iterations = 13.0

     negative rho (up, down):  4.115E-04 0.000E+00

     total cpu time spent up to now is        9.4 secs

     total energy              =     -16.70191965 Ry
     Harris-Foulkes estimate   =     -16.75967909 Ry
     estimated scf accuracy    <       0.17567558 Ry

     iteration #  2     ecut=    85.00 Ry     beta=0.40
     Davidson diagonalization with overlap
     ethr =  2.20E-03,  avg # of iterations =  1.0

     negative rho (up, down):  9.827E-05 0.000E+00

     total cpu time spent up to now is       10.9 secs

     total energy              =     -16.69353264 Ry
     Harris-Foulkes estimate   =     -16.70904674 Ry
     estimated scf accuracy    <       0.03775837 Ry

     iteration #  3     ecut=    85.00 Ry     beta=0.40
     Davidson diagonalization with overlap
     ethr =  4.72E-04,  avg # of iterations =  1.0

     negative rho (up, down):  2.444E-05 0.000E+00

     total cpu time spent up to now is       12.3 secs

     total energy              =     -16.69635025 Ry
     Harris-Foulkes estimate   =     -16.69681446 Ry
     estimated scf accuracy    <       0.00133240 Ry

     iteration #  4     ecut=    85.00 Ry     beta=0.40
     Davidson diagonalization with overlap
     ethr =  1.67E-05,  avg # of iterations = 10.0

     negative rho (up, down):  2.920E-06 0.000E+00

     total cpu time spent up to now is       15.1 secs

     total energy              =     -16.69648706 Ry
     Harris-Foulkes estimate   =     -16.69648886 Ry
     estimated scf accuracy    <       0.00004448 Ry

     iteration #  5     ecut=    85.00 Ry     beta=0.40
     Davidson diagonalization with overlap
     ethr =  5.56E-07,  avg # of iterations =  3.0

     negative rho (up, down):  2.517E-07 0.000E+00

     total cpu time spent up to now is       16.8 secs

     total energy              =     -16.69648967 Ry
     Harris-Foulkes estimate   =     -16.69649369 Ry
     estimated scf accuracy    <       0.00000962 Ry

     iteration #  6     ecut=    85.00 Ry     beta=0.40
     Davidson diagonalization with overlap
     ethr =  1.20E-07,  avg # of iterations =  1.0

     total cpu time spent up to now is       18.2 secs

     End of self-consistent calculation

          k = 0.0000 0.0000 0.0000 (178607 PWs)   bands (ev):

   -15.9764  -9.4263  -9.4263  -6.5619  -0.6158  -0.2430  -0.2410   0.2062
     0.4263   0.4271   0.4792   0.5896   0.6144   0.9557   0.9702   0.9734
     1.0117   1.0231   1.0807   1.1517   1.2214   1.2237   1.2245   1.2313
     1.2388   1.5890   1.6198   1.6641   1.7101   1.7174   1.7191   1.7687
     1.8048   1.8185   2.0171   2.2232   2.2540   2.2802   2.2895   2.3517
     2.5401   2.5900   2.7879   2.7887   2.7892   2.8533   2.8594   2.8640
     2.9132   2.9263   2.9316   2.9436   2.9841   2.9865   2.9902   2.9914
     2.9928   3.0036   3.0077   3.0281   3.0299   3.0301   3.0399   3.1963
     3.2802   3.3579   3.3628   3.4440   3.4505   3.4815   3.5089   3.5455
     3.5476   3.5541   3.5544   3.5644   3.5709   3.5794   3.5817   3.5823
     3.5876   3.5893   3.5961   3.6046   3.6052   3.6095   3.6120   3.9593
     4.0001   4.0355   4.5727   4.5900   4.5940   4.7062   4.7243   4.7367
     4.7547   4.7558   4.7700   4.7991

     highest occupied, lowest unoccupied level (ev):    -6.5619   -0.6158

!    total energy              =     -16.69649086 Ry
     Harris-Foulkes estimate   =     -16.69649085 Ry
     estimated scf accuracy    <       0.00000008 Ry

     The total energy is the sum of the following terms:

     one-electron contribution =     -36.93925243 Ry
     hartree contribution      =      18.91216630 Ry
     xc contribution           =      -5.39087861 Ry
     ewald contribution        =       6.72147389 Ry

     charge density inside the Wigner-Seitz cell:    8.00000000

     reference position (x0):         0.00000000    0.00000024   -0.29436973 bohr

     Dipole moments (with respect to x0):
     Elect  -0.0000   0.0000  -0.2432 au (Ha),  -0.0000   0.0000  -0.6181 Debye
     Ionic   0.0000   0.0000  -0.0000 au (Ha),   0.0000   0.0000  -0.0000 Debye
     Total  -0.0000   0.0000  -0.2432 au (Ha),  -0.0000   0.0000  -0.6181 Debye

     Electrons quadrupole moment        -51.58547598 a.u. (Ha)
          Ions quadrupole moment         19.18707150 a.u. (Ha)
         Total quadrupole moment        -32.39840449 a.u. (Ha)

     *********    MAKOV-PAYNE CORRECTION    *********

     Makov-Payne correction with Madelung constant =   2.8373

     Makov-Payne correction     0.00000000 Ry =  0.000 eV (1st order, 1/a0)
                                0.00000917 Ry =  0.000 eV (2nd order, 1/a0^3)
                                0.00000917 Ry =  0.000 eV (total)

!    Total+Makov-Payne energy  =     -16.69648168 Ry
     Corrected vacuum level    =       0.06840547 eV

     convergence has been achieved in   6 iterations

     Writing output data file ./ph3.save
 
     init_run     :      1.43s CPU      1.70s WALL (       1 calls)
     electrons    :     15.67s CPU     15.90s WALL (       1 calls)

     Called by init_run:
     wfcinit      :      0.57s CPU      0.62s WALL (       1 calls)
     potinit      :      0.18s CPU      0.25s WALL (       1 calls)

     Called by electrons:
     c_bands      :     13.17s CPU     13.25s WALL (       6 calls)
     sum_band     :      1.56s CPU      1.57s WALL (       6 calls)
     v_of_rho     :      0.69s CPU      0.75s WALL (       7 calls)
     mix_rho      :      0.09s CPU      0.10s WALL (       6 calls)

     Called by c_bands:
     init_us_2    :      0.00s CPU      0.01s WALL (      13 calls)
     regterg      :     13.16s CPU     13.23s WALL (       6 calls)

     Called by sum_band:

     Called by *egterg:
     h_psi        :     10.19s CPU     10.24s WALL (      36 calls)
     g_psi        :      0.03s CPU      0.02s WALL (      29 calls)
     rdiaghg      :      1.40s CPU      1.44s WALL (      35 calls)

     Called by h_psi:
     h_psi:pot    :     10.11s CPU     10.16s WALL (      36 calls)
     h_psi:calbec :      0.06s CPU      0.07s WALL (      36 calls)
     vloc_psi     :     10.02s CPU     10.05s WALL (      36 calls)
     add_vuspsi   :      0.02s CPU      0.03s WALL (      36 calls)

     General routines
     calbec       :      0.06s CPU      0.07s WALL (      36 calls)
     fft          :      0.74s CPU      0.86s WALL (      76 calls)
     fftw         :     10.78s CPU     10.68s WALL (    2504 calls)
 
     Parallel routines
     fft_scatter  :      8.64s CPU      8.46s WALL (    2580 calls)
 
     PWSCF        :    19.39s CPU        22.84s WALL

 
   This run was terminated on:  21:13:52  18Apr2018            

=------------------------------------------------------------------------------=
   JOB DONE.
=------------------------------------------------------------------------------=
