
     Program PWSCF v.6.1 (svn rev. 13369) starts on 18Apr2018 at 21:13:58 

     This program is part of the open-source Quantum ESPRESSO suite
     for quantum simulation of materials; please cite
         "P. Giannozzi et al., J. Phys.:Condens. Matter 21 395502 (2009);
          URL http://www.quantum-espresso.org", 
     in publications or presentations arising from this work. More details at
     http://www.quantum-espresso.org/quote

     Parallel version (MPI & OpenMP), running on      80 processor cores
     Number of MPI processes:                80
     Threads/MPI process:                     1
     R & G space division:  proc/nbgrp/npool/nimage =      80
     Waiting for input...
     Reading input from standard input

     Current dimensions of program PWSCF are:
     Max number of different atomic species (ntypx) = 10
     Max number of k-points (npk) =  40000
     Max angular momentum in pseudopotentials (lmaxx) =  3

     gamma-point specific algorithms are used

     Subspace diagonalization in iterative solution of the eigenvalue problem:
     one sub-group per band group will be used
     scalapack distributed-memory algorithm (size of sub-group:  6*  6 procs)

 
     Parallelization info
     --------------------
     sticks:   dense  smooth     PW     G-vecs:    dense   smooth      PW
     Min         303     303     75                35728    35728    4455
     Max         306     306     80                35736    35736    4472
     Sum       24345   24345   6093              2858633  2858633  357213
 


     bravais-lattice index     =            1
     lattice parameter (alat)  =      30.0000  a.u.
     unit-cell volume          =   27000.0000 (a.u.)^3
     number of atoms/cell      =            3
     number of atomic types    =            2
     number of electrons       =         8.00
     number of Kohn-Sham states=          100
     kinetic-energy cutoff     =      85.0000  Ry
     charge density cutoff     =     340.0000  Ry
     convergence threshold     =      1.0E-06
     mixing beta               =       0.4000
     number of iterations used =            8  plain     mixing
     Exchange-correlation      = PBE ( 1  4  3  4 0 0)

     celldm(1)=  30.000000  celldm(2)=   0.000000  celldm(3)=   0.000000
     celldm(4)=   0.000000  celldm(5)=   0.000000  celldm(6)=   0.000000

     crystal axes: (cart. coord. in units of alat)
               a(1) = (   1.000000   0.000000   0.000000 )  
               a(2) = (   0.000000   1.000000   0.000000 )  
               a(3) = (   0.000000   0.000000   1.000000 )  

     reciprocal axes: (cart. coord. in units 2 pi/alat)
               b(1) = (  1.000000  0.000000  0.000000 )  
               b(2) = (  0.000000  1.000000  0.000000 )  
               b(3) = (  0.000000  0.000000  1.000000 )  


     PseudoPot. # 1 for S  read from file:
     ~/PseudoPotential/upf/S_ONCV_PBE-1.0.upf
     MD5 check sum: Not computed, couldn't open file
     Pseudo is Norm-conserving, Zval =  6.0
     Generated using ONCVPSP code by D. R. Hamann
     Using radial grid of  602 points,  4 beta functions with: 
                l(1) =   0
                l(2) =   0
                l(3) =   1
                l(4) =   1

     PseudoPot. # 2 for H  read from file:
     ~/PseudoPotential/upf/H_ONCV_PBE-1.0.upf
     MD5 check sum: Not computed, couldn't open file
     Pseudo is Norm-conserving, Zval =  1.0
     Generated using ONCVPSP code by D. R. Hamann
     Using radial grid of  602 points,  2 beta functions with: 
                l(1) =   0
                l(2) =   0

     atomic species   valence    mass     pseudopotential
        S              6.00     1.00000     S ( 1.00)
        H              1.00     1.00000     H ( 1.00)

     No symmetry found



   Cartesian axes

     site n.     atom                  positions (alat units)
         1           S   tau(   1) = (   0.0000000   0.0000000   0.0064336  )
         2           H   tau(   2) = (   0.0000000   0.0613701  -0.0514688  )
         3           H   tau(   3) = (   0.0000000  -0.0613701  -0.0514688  )

     number of k points=     1
                       cart. coord. in units 2pi/alat
        k(    1) = (   0.0000000   0.0000000   0.0000000), wk =   2.0000000

     Dense  grid:  1429317 G-vectors     FFT dimensions: ( 180, 180, 180)

     Estimated max dynamical RAM per process >      49.07MB

     Estimated total allocated dynamical RAM >    3925.74MB

     Initial potential from superposition of free atoms
     Check: negative starting charge=   -0.000587

     starting charge    7.98540, renormalised to    8.00000

     negative rho (up, down):  5.879E-04 0.000E+00
     Starting wfc are random

     total cpu time spent up to now is        2.7 secs

     per-process dynamical memory:    66.8 Mb

     Self-consistent Calculation

     iteration #  1     ecut=    85.00 Ry     beta=0.40
     Davidson diagonalization with overlap
     ethr =  1.00E-02,  avg # of iterations = 13.0

     negative rho (up, down):  2.145E-04 0.000E+00

     total cpu time spent up to now is        9.7 secs

     total energy              =     -22.84101417 Ry
     Harris-Foulkes estimate   =     -22.87681161 Ry
     estimated scf accuracy    <       0.10592183 Ry

     iteration #  2     ecut=    85.00 Ry     beta=0.40
     Davidson diagonalization with overlap
     ethr =  1.32E-03,  avg # of iterations =  1.0

     negative rho (up, down):  6.401E-05 0.000E+00

     total cpu time spent up to now is       11.2 secs

     total energy              =     -22.84106858 Ry
     Harris-Foulkes estimate   =     -22.84740083 Ry
     estimated scf accuracy    <       0.02054284 Ry

     iteration #  3     ecut=    85.00 Ry     beta=0.40
     Davidson diagonalization with overlap
     ethr =  2.57E-04,  avg # of iterations =  4.0

     negative rho (up, down):  8.621E-06 0.000E+00

     total cpu time spent up to now is       12.9 secs

     total energy              =     -22.84182938 Ry
     Harris-Foulkes estimate   =     -22.84229834 Ry
     estimated scf accuracy    <       0.00192180 Ry

     iteration #  4     ecut=    85.00 Ry     beta=0.40
     Davidson diagonalization with overlap
     ethr =  2.40E-05,  avg # of iterations =  9.0

     negative rho (up, down):  1.998E-06 0.000E+00

     total cpu time spent up to now is       15.1 secs

     total energy              =     -22.84193153 Ry
     Harris-Foulkes estimate   =     -22.84192928 Ry
     estimated scf accuracy    <       0.00002976 Ry

     iteration #  5     ecut=    85.00 Ry     beta=0.40
     Davidson diagonalization with overlap
     ethr =  3.72E-07,  avg # of iterations =  5.0

     negative rho (up, down):  1.891E-07 0.000E+00

     total cpu time spent up to now is       17.1 secs

     total energy              =     -22.84193558 Ry
     Harris-Foulkes estimate   =     -22.84193493 Ry
     estimated scf accuracy    <       0.00000378 Ry

     iteration #  6     ecut=    85.00 Ry     beta=0.40
     Davidson diagonalization with overlap
     ethr =  4.72E-08,  avg # of iterations =  3.0

     total cpu time spent up to now is       18.7 secs

     End of self-consistent calculation

          k = 0.0000 0.0000 0.0000 (178607 PWs)   bands (ev):

   -18.5303 -11.0184  -8.9893  -6.2281  -0.8599  -0.4587   0.1461   0.4093
     0.4595   0.4906   0.5842   0.6029   0.8522   0.9611   0.9919   1.0189
     1.0720   1.1029   1.1474   1.1758   1.2116   1.2221   1.2252   1.2288
     1.4679   1.6566   1.6652   1.6825   1.6942   1.7371   1.7770   1.7986
     1.8073   1.8837   2.2492   2.2648   2.2769   2.3254   2.4338   2.4960
     2.5229   2.6095   2.7440   2.7722   2.8484   2.8668   2.8846   2.8868
     2.8902   2.9350   2.9457   2.9484   2.9695   2.9929   2.9935   2.9972
     3.0052   3.0094   3.0266   3.0284   3.0296   3.0379   3.2443   3.2501
     3.2623   3.3882   3.4056   3.4273   3.4713   3.4878   3.5319   3.5399
     3.5578   3.5611   3.5654   3.5669   3.5689   3.5772   3.5850   3.5889
     3.5895   3.5899   3.5907   3.6031   3.6049   3.6077   3.8262   4.0419
     4.1890   4.2329   4.6169   4.6277   4.6441   4.7004   4.7115   4.7335
     4.7578   4.7670   4.8084   4.8212

     highest occupied, lowest unoccupied level (ev):    -6.2281   -0.8599

!    total energy              =     -22.84193670 Ry
     Harris-Foulkes estimate   =     -22.84193660 Ry
     estimated scf accuracy    <       0.00000028 Ry

     The total energy is the sum of the following terms:

     one-electron contribution =     -42.97227393 Ry
     hartree contribution      =      21.96470031 Ry
     xc contribution           =      -5.82026086 Ry
     ewald contribution        =       3.98589778 Ry

     charge density inside the Wigner-Seitz cell:    8.00000000

     reference position (x0):         0.00000000    0.00000000   -0.24126039 bohr

     Dipole moments (with respect to x0):
     Elect  -0.0000   0.0000  -0.3736 au (Ha),  -0.0000   0.0000  -0.9495 Debye
     Ionic   0.0000   0.0000   0.0000 au (Ha),   0.0000   0.0000   0.0000 Debye
     Total  -0.0000   0.0000  -0.3736 au (Ha),  -0.0000   0.0000  -0.9495 Debye

     Electrons quadrupole moment        -41.19633372 a.u. (Ha)
          Ions quadrupole moment         11.30542985 a.u. (Ha)
         Total quadrupole moment        -29.89090388 a.u. (Ha)

     *********    MAKOV-PAYNE CORRECTION    *********

     Makov-Payne correction with Madelung constant =   2.8373

     Makov-Payne correction     0.00000000 Ry =  0.000 eV (1st order, 1/a0)
                                0.00002165 Ry =  0.000 eV (2nd order, 1/a0^3)
                                0.00002165 Ry =  0.000 eV (total)

!    Total+Makov-Payne energy  =     -22.84191505 Ry
     Corrected vacuum level    =       0.06315159 eV

     convergence has been achieved in   6 iterations

     Writing output data file ./sh2.save
 
     init_run     :      1.44s CPU      1.74s WALL (       1 calls)
     electrons    :     16.06s CPU     16.32s WALL (       1 calls)

     Called by init_run:
     wfcinit      :      0.56s CPU      0.61s WALL (       1 calls)
     potinit      :      0.22s CPU      0.28s WALL (       1 calls)

     Called by electrons:
     c_bands      :     13.55s CPU     13.62s WALL (       6 calls)
     sum_band     :      1.57s CPU      1.59s WALL (       6 calls)
     v_of_rho     :      0.71s CPU      0.76s WALL (       7 calls)
     mix_rho      :      0.08s CPU      0.09s WALL (       6 calls)

     Called by c_bands:
     init_us_2    :      0.00s CPU      0.01s WALL (      13 calls)
     regterg      :     13.53s CPU     13.60s WALL (       6 calls)

     Called by sum_band:

     Called by *egterg:
     h_psi        :     10.30s CPU     10.36s WALL (      42 calls)
     g_psi        :      0.03s CPU      0.02s WALL (      35 calls)
     rdiaghg      :      1.56s CPU      1.59s WALL (      41 calls)

     Called by h_psi:
     h_psi:pot    :     10.23s CPU     10.28s WALL (      42 calls)
     h_psi:calbec :      0.06s CPU      0.07s WALL (      42 calls)
     vloc_psi     :     10.15s CPU     10.18s WALL (      42 calls)
     add_vuspsi   :      0.02s CPU      0.03s WALL (      42 calls)

     General routines
     calbec       :      0.06s CPU      0.06s WALL (      42 calls)
     fft          :      0.77s CPU      0.90s WALL (      76 calls)
     fftw         :     10.94s CPU     10.87s WALL (    2500 calls)
 
     Parallel routines
     fft_scatter  :      8.90s CPU      8.69s WALL (    2576 calls)
 
     PWSCF        :    19.77s CPU        23.06s WALL

 
   This run was terminated on:  21:14:21  18Apr2018            

=------------------------------------------------------------------------------=
   JOB DONE.
=------------------------------------------------------------------------------=
