
     Program PWSCF v.6.1 (svn rev. 13369) starts on 18Apr2018 at 20:59:46 

     This program is part of the open-source Quantum ESPRESSO suite
     for quantum simulation of materials; please cite
         "P. Giannozzi et al., J. Phys.:Condens. Matter 21 395502 (2009);
          URL http://www.quantum-espresso.org", 
     in publications or presentations arising from this work. More details at
     http://www.quantum-espresso.org/quote

     Parallel version (MPI & OpenMP), running on      80 processor cores
     Number of MPI processes:                80
     Threads/MPI process:                     1
     R & G space division:  proc/nbgrp/npool/nimage =      80
     Waiting for input...
     Reading input from standard input

     Current dimensions of program PWSCF are:
     Max number of different atomic species (ntypx) = 10
     Max number of k-points (npk) =  40000
     Max angular momentum in pseudopotentials (lmaxx) =  3

     gamma-point specific algorithms are used

     Subspace diagonalization in iterative solution of the eigenvalue problem:
     one sub-group per band group will be used
     scalapack distributed-memory algorithm (size of sub-group:  6*  6 procs)

 
     Parallelization info
     --------------------
     sticks:   dense  smooth     PW     G-vecs:    dense   smooth      PW
     Min         303     303     75                35728    35728    4455
     Max         306     306     80                35736    35736    4472
     Sum       24345   24345   6093              2858633  2858633  357213
 


     bravais-lattice index     =            1
     lattice parameter (alat)  =      30.0000  a.u.
     unit-cell volume          =   27000.0000 (a.u.)^3
     number of atoms/cell      =            6
     number of atomic types    =            3
     number of electrons       =        14.00
     number of Kohn-Sham states=          100
     kinetic-energy cutoff     =      85.0000  Ry
     charge density cutoff     =     340.0000  Ry
     convergence threshold     =      1.0E-06
     mixing beta               =       0.4000
     number of iterations used =            8  plain     mixing
     Exchange-correlation      = PBE ( 1  4  3  4 0 0)

     celldm(1)=  30.000000  celldm(2)=   0.000000  celldm(3)=   0.000000
     celldm(4)=   0.000000  celldm(5)=   0.000000  celldm(6)=   0.000000

     crystal axes: (cart. coord. in units of alat)
               a(1) = (   1.000000   0.000000   0.000000 )  
               a(2) = (   0.000000   1.000000   0.000000 )  
               a(3) = (   0.000000   0.000000   1.000000 )  

     reciprocal axes: (cart. coord. in units 2 pi/alat)
               b(1) = (  1.000000  0.000000  0.000000 )  
               b(2) = (  0.000000  1.000000  0.000000 )  
               b(3) = (  0.000000  0.000000  1.000000 )  


     PseudoPot. # 1 for C  read from file:
     ~/PseudoPotential/upf/C_ONCV_PBE-1.0.upf
     MD5 check sum: Not computed, couldn't open file
     Pseudo is Norm-conserving, Zval =  4.0
     Generated using ONCVPSP code by D. R. Hamann
     Using radial grid of  602 points,  4 beta functions with: 
                l(1) =   0
                l(2) =   0
                l(3) =   1
                l(4) =   1

     PseudoPot. # 2 for O  read from file:
     ~/PseudoPotential/upf/O_ONCV_PBE-1.0.upf
     MD5 check sum: Not computed, couldn't open file
     Pseudo is Norm-conserving, Zval =  6.0
     Generated using ONCVPSP code by D. R. Hamann
     Using radial grid of  602 points,  4 beta functions with: 
                l(1) =   0
                l(2) =   0
                l(3) =   1
                l(4) =   1

     PseudoPot. # 3 for H  read from file:
     ~/PseudoPotential/upf/H_ONCV_PBE-1.0.upf
     MD5 check sum: Not computed, couldn't open file
     Pseudo is Norm-conserving, Zval =  1.0
     Generated using ONCVPSP code by D. R. Hamann
     Using radial grid of  602 points,  2 beta functions with: 
                l(1) =   0
                l(2) =   0

     atomic species   valence    mass     pseudopotential
        C              4.00     1.00000     C ( 1.00)
        O              6.00     1.00000     O ( 1.00)
        H              1.00     1.00000     H ( 1.00)

     No symmetry found



   Cartesian axes

     site n.     atom                  positions (alat units)
         1           C   tau(   1) = (  -0.0029688   0.0418504   0.0000000  )
         2           O   tau(   2) = (  -0.0029688  -0.0477818   0.0000000  )
         3           H   tau(   3) = (  -0.0688487   0.0610876   0.0000000  )
         4           H   tau(   4) = (   0.0553396  -0.0660433   0.0000000  )
         5           H   tau(   5) = (   0.0275361   0.0680538   0.0561735  )
         6           H   tau(   6) = (   0.0275361   0.0680538  -0.0561735  )

     number of k points=     1
                       cart. coord. in units 2pi/alat
        k(    1) = (   0.0000000   0.0000000   0.0000000), wk =   2.0000000

     Dense  grid:  1429317 G-vectors     FFT dimensions: ( 180, 180, 180)

     Estimated max dynamical RAM per process >      49.07MB

     Estimated total allocated dynamical RAM >    3925.74MB

     Initial potential from superposition of free atoms
     Check: negative starting charge=   -0.000323

     starting charge   13.98355, renormalised to   14.00000

     negative rho (up, down):  3.235E-04 0.000E+00
     Starting wfc are random

     total cpu time spent up to now is        2.8 secs

     per-process dynamical memory:    68.1 Mb

     Self-consistent Calculation

     iteration #  1     ecut=    85.00 Ry     beta=0.40
     Davidson diagonalization with overlap
     ethr =  1.00E-02,  avg # of iterations = 13.0

     negative rho (up, down):  1.707E-04 0.000E+00

     total cpu time spent up to now is        9.6 secs

     total energy              =     -47.99141596 Ry
     Harris-Foulkes estimate   =     -48.29591784 Ry
     estimated scf accuracy    <       0.66485173 Ry

     iteration #  2     ecut=    85.00 Ry     beta=0.40
     Davidson diagonalization with overlap
     ethr =  4.75E-03,  avg # of iterations =  1.0

     negative rho (up, down):  5.514E-05 0.000E+00

     total cpu time spent up to now is       11.1 secs

     total energy              =     -48.05795815 Ry
     Harris-Foulkes estimate   =     -48.07982793 Ry
     estimated scf accuracy    <       0.06876281 Ry

     iteration #  3     ecut=    85.00 Ry     beta=0.40
     Davidson diagonalization with overlap
     ethr =  4.91E-04,  avg # of iterations =  4.0

     negative rho (up, down):  1.055E-05 0.000E+00

     total cpu time spent up to now is       12.7 secs

     total energy              =     -48.05509575 Ry
     Harris-Foulkes estimate   =     -48.06116788 Ry
     estimated scf accuracy    <       0.01633398 Ry

     iteration #  4     ecut=    85.00 Ry     beta=0.40
     Davidson diagonalization with overlap
     ethr =  1.17E-04,  avg # of iterations =  6.0

     negative rho (up, down):  2.405E-06 0.000E+00

     total cpu time spent up to now is       14.6 secs

     total energy              =     -48.05581518 Ry
     Harris-Foulkes estimate   =     -48.05598930 Ry
     estimated scf accuracy    <       0.00068448 Ry

     iteration #  5     ecut=    85.00 Ry     beta=0.40
     Davidson diagonalization with overlap
     ethr =  4.89E-06,  avg # of iterations = 13.0

     negative rho (up, down):  2.663E-07 0.000E+00

     total cpu time spent up to now is       17.8 secs

     total energy              =     -48.05585519 Ry
     Harris-Foulkes estimate   =     -48.05587291 Ry
     estimated scf accuracy    <       0.00006017 Ry

     iteration #  6     ecut=    85.00 Ry     beta=0.40
     Davidson diagonalization with overlap
     ethr =  4.30E-07,  avg # of iterations =  2.0

     negative rho (up, down):  1.693E-07 0.000E+00

     total cpu time spent up to now is       19.4 secs

     total energy              =     -48.05586541 Ry
     Harris-Foulkes estimate   =     -48.05586629 Ry
     estimated scf accuracy    <       0.00000317 Ry

     iteration #  7     ecut=    85.00 Ry     beta=0.40
     Davidson diagonalization with overlap
     ethr =  2.26E-08,  avg # of iterations =  2.0

     total cpu time spent up to now is       20.9 secs

     End of self-consistent calculation

          k = 0.0000 0.0000 0.0000 (178607 PWs)   bands (ev):

   -25.3956 -16.7749 -12.4495 -10.5903 -10.2897  -7.9749  -6.2406  -0.6402
    -0.0570   0.2246   0.4049   0.4441   0.5966   0.6020   0.7769   0.9284
     0.9383   0.9893   1.0916   1.1083   1.1416   1.1736   1.1864   1.2158
     1.2208   1.2312   1.5084   1.6434   1.6687   1.6870   1.6971   1.7154
     1.7243   1.7798   1.8868   2.0116   2.0781   2.1919   2.2202   2.3574
     2.4645   2.5201   2.6007   2.6318   2.6735   2.6821   2.7428   2.7837
     2.8510   2.8858   2.9037   2.9225   2.9364   2.9477   2.9527   2.9902
     2.9923   3.0014   3.0021   3.0086   3.0213   3.0244   3.0284   3.0334
     3.2496   3.2696   3.3235   3.3451   3.3930   3.4087   3.4174   3.4403
     3.4675   3.5117   3.5453   3.5493   3.5547   3.5663   3.5710   3.5826
     3.5844   3.5855   3.5919   3.5941   3.5983   3.6000   3.6069   3.6089
     4.0406   4.0917   4.1587   4.3122   4.5220   4.5511   4.6064   4.6342
     4.6506   4.6772   4.6994   4.7748

     highest occupied, lowest unoccupied level (ev):    -6.2406   -0.6402

!    total energy              =     -48.05586596 Ry
     Harris-Foulkes estimate   =     -48.05586604 Ry
     estimated scf accuracy    <       0.00000078 Ry

     The total energy is the sum of the following terms:

     one-electron contribution =    -137.51799538 Ry
     hartree contribution      =      70.83748747 Ry
     xc contribution           =     -13.37331826 Ry
     ewald contribution        =      31.99796022 Ry

     charge density inside the Wigner-Seitz cell:   14.00000000

     reference position (x0):         0.02544638    0.02542073    0.00000000 bohr

     Dipole moments (with respect to x0):
     Elect   0.5249   0.3605   0.0000 au (Ha),   1.3341   0.9163   0.0000 Debye
     Ionic   0.0000   0.0000   0.0000 au (Ha),   0.0000   0.0000   0.0000 Debye
     Total   0.5249   0.3605   0.0000 au (Ha),   1.3341   0.9163   0.0000 Debye

     Electrons quadrupole moment        -77.68069931 a.u. (Ha)
          Ions quadrupole moment         48.38267202 a.u. (Ha)
         Total quadrupole moment        -29.29802729 a.u. (Ha)

     *********    MAKOV-PAYNE CORRECTION    *********

     Makov-Payne correction with Madelung constant =   2.8373

     Makov-Payne correction     0.00000000 Ry =  0.000 eV (1st order, 1/a0)
                                0.00006290 Ry =  0.001 eV (2nd order, 1/a0^3)
                                0.00006290 Ry =  0.001 eV (total)

!    Total+Makov-Payne energy  =     -48.05580306 Ry
     Corrected vacuum level    =       0.06185869 eV

     convergence has been achieved in   7 iterations

     Writing output data file ./ch3oh.save
 
     init_run     :      1.60s CPU      1.93s WALL (       1 calls)
     electrons    :     18.13s CPU     18.44s WALL (       1 calls)

     Called by init_run:
     wfcinit      :      0.56s CPU      0.63s WALL (       1 calls)
     potinit      :      0.20s CPU      0.29s WALL (       1 calls)

     Called by electrons:
     c_bands      :     15.21s CPU     15.33s WALL (       7 calls)
     sum_band     :      1.84s CPU      1.86s WALL (       7 calls)
     v_of_rho     :      0.80s CPU      0.86s WALL (       8 calls)
     mix_rho      :      0.11s CPU      0.12s WALL (       7 calls)

     Called by c_bands:
     init_us_2    :      0.01s CPU      0.01s WALL (      15 calls)
     regterg      :     15.19s CPU     15.31s WALL (       7 calls)

     Called by sum_band:

     Called by *egterg:
     h_psi        :     11.45s CPU     11.55s WALL (      49 calls)
     g_psi        :      0.03s CPU      0.03s WALL (      41 calls)
     rdiaghg      :      1.94s CPU      1.98s WALL (      48 calls)

     Called by h_psi:
     h_psi:pot    :     11.36s CPU     11.46s WALL (      49 calls)
     h_psi:calbec :      0.08s CPU      0.09s WALL (      49 calls)
     vloc_psi     :     11.25s CPU     11.32s WALL (      49 calls)
     add_vuspsi   :      0.02s CPU      0.04s WALL (      49 calls)

     General routines
     calbec       :      0.08s CPU      0.08s WALL (      49 calls)
     fft          :      0.83s CPU      0.97s WALL (      87 calls)
     fftw         :     12.21s CPU     12.16s WALL (    2804 calls)
 
     Parallel routines
     fft_scatter  :      9.94s CPU      9.67s WALL (    2891 calls)
 
     PWSCF        :    22.07s CPU        27.27s WALL

 
   This run was terminated on:  21: 0:14  18Apr2018            

=------------------------------------------------------------------------------=
   JOB DONE.
=------------------------------------------------------------------------------=
