
     Program PWSCF v.6.1 (svn rev. 13369) starts on 18Apr2018 at 21: 6: 1 

     This program is part of the open-source Quantum ESPRESSO suite
     for quantum simulation of materials; please cite
         "P. Giannozzi et al., J. Phys.:Condens. Matter 21 395502 (2009);
          URL http://www.quantum-espresso.org", 
     in publications or presentations arising from this work. More details at
     http://www.quantum-espresso.org/quote

     Parallel version (MPI & OpenMP), running on      80 processor cores
     Number of MPI processes:                80
     Threads/MPI process:                     1
     R & G space division:  proc/nbgrp/npool/nimage =      80
     Waiting for input...
     Reading input from standard input

     Current dimensions of program PWSCF are:
     Max number of different atomic species (ntypx) = 10
     Max number of k-points (npk) =  40000
     Max angular momentum in pseudopotentials (lmaxx) =  3

     gamma-point specific algorithms are used

     Subspace diagonalization in iterative solution of the eigenvalue problem:
     one sub-group per band group will be used
     scalapack distributed-memory algorithm (size of sub-group:  6*  6 procs)

 
     Parallelization info
     --------------------
     sticks:   dense  smooth     PW     G-vecs:    dense   smooth      PW
     Min         303     303     75                35728    35728    4455
     Max         306     306     80                35736    35736    4472
     Sum       24345   24345   6093              2858633  2858633  357213
 


     bravais-lattice index     =            1
     lattice parameter (alat)  =      30.0000  a.u.
     unit-cell volume          =   27000.0000 (a.u.)^3
     number of atoms/cell      =            4
     number of atomic types    =            2
     number of electrons       =        14.00
     number of Kohn-Sham states=          100
     kinetic-energy cutoff     =      85.0000  Ry
     charge density cutoff     =     340.0000  Ry
     convergence threshold     =      1.0E-06
     mixing beta               =       0.4000
     number of iterations used =            8  plain     mixing
     Exchange-correlation      = PBE ( 1  4  3  4 0 0)

     celldm(1)=  30.000000  celldm(2)=   0.000000  celldm(3)=   0.000000
     celldm(4)=   0.000000  celldm(5)=   0.000000  celldm(6)=   0.000000

     crystal axes: (cart. coord. in units of alat)
               a(1) = (   1.000000   0.000000   0.000000 )  
               a(2) = (   0.000000   1.000000   0.000000 )  
               a(3) = (   0.000000   0.000000   1.000000 )  

     reciprocal axes: (cart. coord. in units 2 pi/alat)
               b(1) = (  1.000000  0.000000  0.000000 )  
               b(2) = (  0.000000  1.000000  0.000000 )  
               b(3) = (  0.000000  0.000000  1.000000 )  


     PseudoPot. # 1 for O  read from file:
     ~/PseudoPotential/upf/O_ONCV_PBE-1.0.upf
     MD5 check sum: Not computed, couldn't open file
     Pseudo is Norm-conserving, Zval =  6.0
     Generated using ONCVPSP code by D. R. Hamann
     Using radial grid of  602 points,  4 beta functions with: 
                l(1) =   0
                l(2) =   0
                l(3) =   1
                l(4) =   1

     PseudoPot. # 2 for H  read from file:
     ~/PseudoPotential/upf/H_ONCV_PBE-1.0.upf
     MD5 check sum: Not computed, couldn't open file
     Pseudo is Norm-conserving, Zval =  1.0
     Generated using ONCVPSP code by D. R. Hamann
     Using radial grid of  602 points,  2 beta functions with: 
                l(1) =   0
                l(2) =   0

     atomic species   valence    mass     pseudopotential
        O              6.00     1.00000     O ( 1.00)
        H              1.00     1.00000     H ( 1.00)

     No symmetry found



   Cartesian axes

     site n.     atom                  positions (alat units)
         1           O   tau(   1) = (   0.0000000   0.0462390  -0.0033228  )
         2           O   tau(   2) = (   0.0000000  -0.0462390  -0.0033228  )
         3           H   tau(   3) = (   0.0528838   0.0554793   0.0265822  )
         4           H   tau(   4) = (  -0.0528838  -0.0554793   0.0265822  )

     number of k points=     1
                       cart. coord. in units 2pi/alat
        k(    1) = (   0.0000000   0.0000000   0.0000000), wk =   2.0000000

     Dense  grid:  1429317 G-vectors     FFT dimensions: ( 180, 180, 180)

     Estimated max dynamical RAM per process >      49.07MB

     Estimated total allocated dynamical RAM >    3925.74MB

     Initial potential from superposition of free atoms
     Check: negative starting charge=   -0.000262

     starting charge   13.99383, renormalised to   14.00000

     negative rho (up, down):  2.622E-04 0.000E+00
     Starting wfc are random

     total cpu time spent up to now is        2.8 secs

     per-process dynamical memory:    67.1 Mb

     Self-consistent Calculation

     iteration #  1     ecut=    85.00 Ry     beta=0.40
     Davidson diagonalization with overlap
     ethr =  1.00E-02,  avg # of iterations = 13.0

     negative rho (up, down):  1.294E-04 0.000E+00

     total cpu time spent up to now is        9.6 secs

     total energy              =     -66.01918421 Ry
     Harris-Foulkes estimate   =     -66.16676928 Ry
     estimated scf accuracy    <       0.34821628 Ry

     iteration #  2     ecut=    85.00 Ry     beta=0.40
     Davidson diagonalization with overlap
     ethr =  2.49E-03,  avg # of iterations =  1.0

     negative rho (up, down):  4.537E-05 0.000E+00

     total cpu time spent up to now is       11.1 secs

     total energy              =     -66.04664995 Ry
     Harris-Foulkes estimate   =     -66.05831049 Ry
     estimated scf accuracy    <       0.04371734 Ry

     iteration #  3     ecut=    85.00 Ry     beta=0.40
     Davidson diagonalization with overlap
     ethr =  3.12E-04,  avg # of iterations =  1.0

     negative rho (up, down):  3.923E-06 0.000E+00

     total cpu time spent up to now is       12.6 secs

     total energy              =     -66.04546996 Ry
     Harris-Foulkes estimate   =     -66.04822091 Ry
     estimated scf accuracy    <       0.00991143 Ry

     iteration #  4     ecut=    85.00 Ry     beta=0.40
     Davidson diagonalization with overlap
     ethr =  7.08E-05,  avg # of iterations =  5.0

     negative rho (up, down):  6.871E-07 0.000E+00

     total cpu time spent up to now is       14.4 secs

     total energy              =     -66.04581882 Ry
     Harris-Foulkes estimate   =     -66.04588588 Ry
     estimated scf accuracy    <       0.00024484 Ry

     iteration #  5     ecut=    85.00 Ry     beta=0.40
     Davidson diagonalization with overlap
     ethr =  1.75E-06,  avg # of iterations =  9.0

     negative rho (up, down):  7.284E-08 0.000E+00

     total cpu time spent up to now is       17.2 secs

     total energy              =     -66.04584674 Ry
     Harris-Foulkes estimate   =     -66.04584634 Ry
     estimated scf accuracy    <       0.00001039 Ry

     iteration #  6     ecut=    85.00 Ry     beta=0.40
     Davidson diagonalization with overlap
     ethr =  7.42E-08,  avg # of iterations =  2.0

     total cpu time spent up to now is       18.8 secs

     total energy              =     -66.04584819 Ry
     Harris-Foulkes estimate   =     -66.04584833 Ry
     estimated scf accuracy    <       0.00000133 Ry

     iteration #  7     ecut=    85.00 Ry     beta=0.40
     Davidson diagonalization with overlap
     ethr =  9.49E-09,  avg # of iterations =  1.0

     total cpu time spent up to now is       20.2 secs

     End of self-consistent calculation

          k = 0.0000 0.0000 0.0000 (178607 PWs)   bands (ev):

   -28.0464 -22.4863 -13.1615 -12.1056 -10.1936  -7.7123  -6.2996  -1.5895
    -0.7982   0.1464   0.1863   0.5192   0.5675   0.6102   0.6263   0.8109
     0.8756   1.0433   1.0739   1.1336   1.1424   1.1940   1.1974   1.2164
     1.2213   1.2267   1.2376   1.5207   1.6207   1.7148   1.7281   1.7442
     1.7494   1.7636   1.7911   2.0235   2.0948   2.2166   2.2474   2.3170
     2.3439   2.5010   2.6015   2.7050   2.7373   2.7428   2.7961   2.8383
     2.8822   2.9028   2.9061   2.9291   2.9392   2.9563   2.9789   2.9804
     2.9967   3.0000   3.0098   3.0149   3.0161   3.0256   3.0265   3.0338
     3.0363   3.2672   3.3435   3.4035   3.4150   3.4203   3.4514   3.4636
     3.4947   3.5403   3.5481   3.5569   3.5696   3.5742   3.5790   3.5869
     3.5885   3.5904   3.5963   3.5969   3.5998   3.6050   3.6116   3.6125
     3.6151   4.1110   4.3794   4.5722   4.5998   4.6166   4.6448   4.6606
     4.6817   4.7010   4.7102   4.7616

     highest occupied, lowest unoccupied level (ev):    -6.2996   -1.5895

!    total energy              =     -66.04584829 Ry
     Harris-Foulkes estimate   =     -66.04584832 Ry
     estimated scf accuracy    <       0.00000011 Ry

     The total energy is the sum of the following terms:

     one-electron contribution =    -162.06560569 Ry
     hartree contribution      =      83.57053830 Ry
     xc contribution           =     -15.24782322 Ry
     ewald contribution        =      27.69704231 Ry

     charge density inside the Wigner-Seitz cell:   14.00000000

     reference position (x0):         0.00000000    0.00000000    0.02848114 bohr

     Dipole moments (with respect to x0):
     Elect  -0.0001   0.0003   0.6005 au (Ha),  -0.0001   0.0007   1.5264 Debye
     Ionic   0.0000   0.0000   0.0000 au (Ha),   0.0000   0.0000   0.0000 Debye
     Total  -0.0001   0.0003   0.6005 au (Ha),  -0.0001   0.0007   1.5264 Debye

     Electrons quadrupole moment        -60.09348733 a.u. (Ha)
          Ions quadrupole moment         35.04500414 a.u. (Ha)
         Total quadrupole moment        -25.04848319 a.u. (Ha)

     *********    MAKOV-PAYNE CORRECTION    *********

     Makov-Payne correction with Madelung constant =   2.8373

     Makov-Payne correction     0.00000000 Ry =  0.000 eV (1st order, 1/a0)
                                0.00005595 Ry =  0.001 eV (2nd order, 1/a0^3)
                                0.00005595 Ry =  0.001 eV (total)

!    Total+Makov-Payne energy  =     -66.04579234 Ry
     Corrected vacuum level    =       0.05288014 eV

     convergence has been achieved in   7 iterations

     Writing output data file ./h2o2.save
 
     init_run     :      1.43s CPU      1.72s WALL (       1 calls)
     electrons    :     17.59s CPU     17.81s WALL (       1 calls)

     Called by init_run:
     wfcinit      :      0.54s CPU      0.60s WALL (       1 calls)
     potinit      :      0.18s CPU      0.25s WALL (       1 calls)

     Called by electrons:
     c_bands      :     14.72s CPU     14.80s WALL (       7 calls)
     sum_band     :      1.81s CPU      1.83s WALL (       7 calls)
     v_of_rho     :      0.79s CPU      0.85s WALL (       8 calls)
     mix_rho      :      0.11s CPU      0.12s WALL (       7 calls)

     Called by c_bands:
     init_us_2    :      0.00s CPU      0.01s WALL (      15 calls)
     regterg      :     14.70s CPU     14.77s WALL (       7 calls)

     Called by sum_band:

     Called by *egterg:
     h_psi        :     11.34s CPU     11.40s WALL (      40 calls)
     g_psi        :      0.03s CPU      0.03s WALL (      32 calls)
     rdiaghg      :      1.57s CPU      1.62s WALL (      39 calls)

     Called by h_psi:
     h_psi:pot    :     11.25s CPU     11.31s WALL (      40 calls)
     h_psi:calbec :      0.07s CPU      0.07s WALL (      40 calls)
     vloc_psi     :     11.16s CPU     11.19s WALL (      40 calls)
     add_vuspsi   :      0.02s CPU      0.04s WALL (      40 calls)

     General routines
     calbec       :      0.07s CPU      0.07s WALL (      40 calls)
     fft          :      0.83s CPU      0.97s WALL (      87 calls)
     fftw         :     12.12s CPU     12.01s WALL (    2806 calls)
 
     Parallel routines
     fft_scatter  :      9.81s CPU      9.52s WALL (    2893 calls)
 
     PWSCF        :    21.27s CPU        25.31s WALL

 
   This run was terminated on:  21: 6:26  18Apr2018            

=------------------------------------------------------------------------------=
   JOB DONE.
=------------------------------------------------------------------------------=
