
     Program PWSCF v.6.1 (svn rev. 13369) starts on 26Sep2019 at 12:26:48 

     This program is part of the open-source Quantum ESPRESSO suite
     for quantum simulation of materials; please cite
         "P. Giannozzi et al., J. Phys.:Condens. Matter 21 395502 (2009);
          URL http://www.quantum-espresso.org", 
     in publications or presentations arising from this work. More details at
     http://www.quantum-espresso.org/quote

     Parallel version (MPI), running on    40 processors
     R & G space division:  proc/nbgrp/npool/nimage =      40
     Waiting for input...
     Reading input from standard input

     Current dimensions of program PWSCF are:
     Max number of different atomic species (ntypx) = 10
     Max number of k-points (npk) =  40000
     Max angular momentum in pseudopotentials (lmaxx) =  3

     gamma-point specific algorithms are used

     Subspace diagonalization in iterative solution of the eigenvalue problem:
     one sub-group per band group will be used
     scalapack distributed-memory algorithm (size of sub-group:  4*  4 procs)

 
     Parallelization info
     --------------------
     sticks:   dense  smooth     PW     G-vecs:    dense   smooth      PW
     Min         608     608    151                71460    71460    8926
     Max         610     610    158                71470    71470    8932
     Sum       24345   24345   6093              2858633  2858633  357213
 


     bravais-lattice index     =            1
     lattice parameter (alat)  =      30.0000  a.u.
     unit-cell volume          =   27000.0000 (a.u.)^3
     number of atoms/cell      =            5
     number of atomic types    =            2
     number of electrons       =         8.00
     number of Kohn-Sham states=          100
     kinetic-energy cutoff     =      85.0000  Ry
     charge density cutoff     =     340.0000  Ry
     convergence threshold     =      1.0E-06
     mixing beta               =       0.4000
     number of iterations used =            8  plain     mixing
     Exchange-correlation      = PBE ( 1  4  3  4 0 0)

     celldm(1)=  30.000000  celldm(2)=   0.000000  celldm(3)=   0.000000
     celldm(4)=   0.000000  celldm(5)=   0.000000  celldm(6)=   0.000000

     crystal axes: (cart. coord. in units of alat)
               a(1) = (   1.000000   0.000000   0.000000 )  
               a(2) = (   0.000000   1.000000   0.000000 )  
               a(3) = (   0.000000   0.000000   1.000000 )  

     reciprocal axes: (cart. coord. in units 2 pi/alat)
               b(1) = (  1.000000  0.000000  0.000000 )  
               b(2) = (  0.000000  1.000000  0.000000 )  
               b(3) = (  0.000000  0.000000  1.000000 )  


     PseudoPot. # 1 for C  read from file:
     ~/PseudoPotential/upf/C_ONCV_PBE-1.0.upf
     MD5 check sum: Not computed, couldn't open file
     Pseudo is Norm-conserving, Zval =  4.0
     Generated using ONCVPSP code by D. R. Hamann
     Using radial grid of  602 points,  4 beta functions with: 
                l(1) =   0
                l(2) =   0
                l(3) =   1
                l(4) =   1

     PseudoPot. # 2 for H  read from file:
     ~/PseudoPotential/upf/H_ONCV_PBE-1.0.upf
     MD5 check sum: Not computed, couldn't open file
     Pseudo is Norm-conserving, Zval =  1.0
     Generated using ONCVPSP code by D. R. Hamann
     Using radial grid of  602 points,  2 beta functions with: 
                l(1) =   0
                l(2) =   0

     atomic species   valence    mass     pseudopotential
        C              4.00     1.00000     C ( 1.00)
        H              1.00     1.00000     H ( 1.00)

     No symmetry found



   Cartesian axes

     site n.     atom                  positions (alat units)
         1           C   tau(   1) = (   0.0000000   0.0000000   0.0000000  )
         2           H   tau(   2) = (   0.0396287   0.0396287   0.0396287  )
         3           H   tau(   3) = (  -0.0396287  -0.0396287   0.0396287  )
         4           H   tau(   4) = (   0.0396287  -0.0396287  -0.0396287  )
         5           H   tau(   5) = (  -0.0396287   0.0396287  -0.0396287  )

     number of k points=     1
                       cart. coord. in units 2pi/alat
        k(    1) = (   0.0000000   0.0000000   0.0000000), wk =   2.0000000

     Dense  grid:  1429317 G-vectors     FFT dimensions: ( 180, 180, 180)

     Estimated max dynamical RAM per process >      61.31MB

     Estimated total allocated dynamical RAM >    2452.36MB

     Initial potential from superposition of free atoms
     Check: negative starting charge=   -0.000302

     starting charge    7.98450, renormalised to    8.00000

     negative rho (up, down):  3.028E-04 0.000E+00
     Starting wfc are random

     total cpu time spent up to now is        2.8 secs

     per-process dynamical memory:    59.5 Mb

     Self-consistent Calculation

     iteration #  1     ecut=    85.00 Ry     beta=0.40
     Davidson diagonalization with overlap
     ethr =  1.00E-02,  avg # of iterations = 15.0

     negative rho (up, down):  1.669E-04 0.000E+00

     total cpu time spent up to now is       15.8 secs

     total energy              =     -16.08542578 Ry
     Harris-Foulkes estimate   =     -16.42023466 Ry
     estimated scf accuracy    <       0.69876918 Ry

     iteration #  2     ecut=    85.00 Ry     beta=0.40
     Davidson diagonalization with overlap
     ethr =  8.73E-03,  avg # of iterations =  1.0

     negative rho (up, down):  5.476E-05 0.000E+00

     total cpu time spent up to now is       18.6 secs

     total energy              =     -16.16687872 Ry
     Harris-Foulkes estimate   =     -16.18401580 Ry
     estimated scf accuracy    <       0.05274241 Ry

     iteration #  3     ecut=    85.00 Ry     beta=0.40
     Davidson diagonalization with overlap
     ethr =  6.59E-04,  avg # of iterations =  4.0

     negative rho (up, down):  2.886E-06 0.000E+00

     total cpu time spent up to now is       21.6 secs

     total energy              =     -16.16237354 Ry
     Harris-Foulkes estimate   =     -16.16861039 Ry
     estimated scf accuracy    <       0.01354480 Ry

     iteration #  4     ecut=    85.00 Ry     beta=0.40
     Davidson diagonalization with overlap
     ethr =  1.69E-04,  avg # of iterations =  5.0

     negative rho (up, down):  2.456E-06 0.000E+00

     total cpu time spent up to now is       24.7 secs

     total energy              =     -16.16332546 Ry
     Harris-Foulkes estimate   =     -16.16334947 Ry
     estimated scf accuracy    <       0.00006957 Ry

     iteration #  5     ecut=    85.00 Ry     beta=0.40
     Davidson diagonalization with overlap
     ethr =  8.70E-07,  avg # of iterations = 12.0

     negative rho (up, down):  4.421E-07 0.000E+00

     total cpu time spent up to now is       30.2 secs

     total energy              =     -16.16335360 Ry
     Harris-Foulkes estimate   =     -16.16335666 Ry
     estimated scf accuracy    <       0.00000894 Ry

     iteration #  6     ecut=    85.00 Ry     beta=0.40
     Davidson diagonalization with overlap
     ethr =  1.12E-07,  avg # of iterations =  2.0

     negative rho (up, down):  7.218E-08 0.000E+00

     total cpu time spent up to now is       33.0 secs

     total energy              =     -16.16335522 Ry
     Harris-Foulkes estimate   =     -16.16335649 Ry
     estimated scf accuracy    <       0.00000284 Ry

     iteration #  7     ecut=    85.00 Ry     beta=0.40
     Davidson diagonalization with overlap
     ethr =  3.55E-08,  avg # of iterations =  2.0

     total cpu time spent up to now is       35.9 secs

     End of self-consistent calculation

          k = 0.0000 0.0000 0.0000 (178607 PWs)   bands (ev):

   -17.0082  -9.4102  -9.4102  -9.4102  -0.3888   0.2250   0.4694   0.4694
     0.4694   0.6025   0.6025   0.9742   0.9839   0.9839   0.9839   1.1005
     1.1006   1.1006   1.1858   1.1858   1.2149   1.2149   1.2149   1.6569
     1.6569   1.6570   1.6952   1.6952   1.6952   1.7260   1.7830   2.1389
     2.1389   2.2539   2.2539   2.2540   2.3503   2.4284   2.4284   2.4284
     2.7141   2.7142   2.7488   2.7488   2.7489   2.8833   2.9111   2.9112
     2.9112   2.9571   2.9572   2.9572   2.9936   2.9936   2.9936   2.9998
     2.9998   3.0145   3.0145   3.0145   3.0200   3.2291   3.2291   3.2292
     3.4293   3.4371   3.4371   3.4371   3.4847   3.4847   3.5490   3.5571
     3.5572   3.5572   3.5595   3.5595   3.5596   3.5842   3.5842   3.5842
     3.5878   3.5879   3.5879   3.6004   3.6004   4.1141   4.1141   4.1141
     4.5045   4.5046   4.6640   4.6640   4.6640   4.7014   4.7014   4.7014
     4.7817   4.9092   4.9092   4.9092

     highest occupied, lowest unoccupied level (ev):    -9.4102   -0.3888

!    total energy              =     -16.16335574 Ry
     Harris-Foulkes estimate   =     -16.16335574 Ry
     estimated scf accuracy    <       0.00000002 Ry

     The total energy is the sum of the following terms:

     one-electron contribution =     -47.34157678 Ry
     hartree contribution      =      24.46273172 Ry
     xc contribution           =      -6.36148499 Ry
     ewald contribution        =      13.07697432 Ry

     charge density inside the Wigner-Seitz cell:    8.00000000

     reference position (x0):         0.00000000    0.00000000    0.00000000 bohr

     Dipole moments (with respect to x0):
     Elect   0.0000   0.0000  -0.0000 au (Ha),   0.0000   0.0000  -0.0000 Debye
     Ionic   0.0000   0.0000   0.0000 au (Ha),   0.0000   0.0000   0.0000 Debye
     Total   0.0000   0.0000  -0.0000 au (Ha),   0.0000   0.0000  -0.0000 Debye

     Electrons quadrupole moment        -35.69799461 a.u. (Ha)
          Ions quadrupole moment         16.96067789 a.u. (Ha)
         Total quadrupole moment        -18.73731672 a.u. (Ha)

     *********    MAKOV-PAYNE CORRECTION    *********

     Makov-Payne correction with Madelung constant =   2.8373

     Makov-Payne correction     0.00000000 Ry =  0.000 eV (1st order, 1/a0)
                                0.00000000 Ry =  0.000 eV (2nd order, 1/a0^3)
                                0.00000000 Ry =  0.000 eV (total)

!    Total+Makov-Payne energy  =     -16.16335574 Ry
     Corrected vacuum level    =       0.03933891 eV

     convergence has been achieved in   7 iterations

     Writing output data file ./ch4.save
 
     init_run     :      1.87s CPU      2.01s WALL (       1 calls)
     electrons    :     32.87s CPU     33.48s WALL (       1 calls)

     Called by init_run:
     wfcinit      :      0.98s CPU      1.03s WALL (       1 calls)
     potinit      :      0.28s CPU      0.29s WALL (       1 calls)

     Called by electrons:
     c_bands      :     27.54s CPU     27.92s WALL (       7 calls)
     sum_band     :      3.65s CPU      3.68s WALL (       7 calls)
     v_of_rho     :      1.40s CPU      1.44s WALL (       8 calls)
     mix_rho      :      0.18s CPU      0.19s WALL (       7 calls)

     Called by c_bands:
     init_us_2    :      0.01s CPU      0.02s WALL (      15 calls)
     regterg      :     27.50s CPU     27.88s WALL (       7 calls)

     Called by sum_band:

     Called by *egterg:
     h_psi        :     23.38s CPU     23.53s WALL (      49 calls)
     g_psi        :      0.06s CPU      0.06s WALL (      41 calls)
     rdiaghg      :      1.13s CPU      1.16s WALL (      48 calls)

     Called by h_psi:
     h_psi:pot    :     23.19s CPU     23.33s WALL (      49 calls)
     h_psi:calbec :      0.13s CPU      0.13s WALL (      49 calls)
     vloc_psi     :     22.98s CPU     23.10s WALL (      49 calls)
     add_vuspsi   :      0.08s CPU      0.10s WALL (      49 calls)

     General routines
     calbec       :      0.13s CPU      0.13s WALL (      49 calls)
     fft          :      1.35s CPU      1.38s WALL (      87 calls)
     fftw         :     22.58s CPU     22.48s WALL (    2986 calls)
 
     Parallel routines
     fft_scatter  :      9.48s CPU      9.08s WALL (    3073 calls)
 
     PWSCF        :    36.46s CPU        39.74s WALL

 
   This run was terminated on:  12:27:28  26Sep2019            

=------------------------------------------------------------------------------=
   JOB DONE.
=------------------------------------------------------------------------------=
