
     Program PWSCF v.6.1 (svn rev. 13369) starts on 18Apr2018 at 21: 0:24 

     This program is part of the open-source Quantum ESPRESSO suite
     for quantum simulation of materials; please cite
         "P. Giannozzi et al., J. Phys.:Condens. Matter 21 395502 (2009);
          URL http://www.quantum-espresso.org", 
     in publications or presentations arising from this work. More details at
     http://www.quantum-espresso.org/quote

     Parallel version (MPI & OpenMP), running on      80 processor cores
     Number of MPI processes:                80
     Threads/MPI process:                     1
     R & G space division:  proc/nbgrp/npool/nimage =      80
     Waiting for input...
     Reading input from standard input

     Current dimensions of program PWSCF are:
     Max number of different atomic species (ntypx) = 10
     Max number of k-points (npk) =  40000
     Max angular momentum in pseudopotentials (lmaxx) =  3

     gamma-point specific algorithms are used

     Subspace diagonalization in iterative solution of the eigenvalue problem:
     one sub-group per band group will be used
     scalapack distributed-memory algorithm (size of sub-group:  6*  6 procs)

 
     Parallelization info
     --------------------
     sticks:   dense  smooth     PW     G-vecs:    dense   smooth      PW
     Min         303     303     75                35728    35728    4455
     Max         306     306     80                35736    35736    4472
     Sum       24345   24345   6093              2858633  2858633  357213
 


     bravais-lattice index     =            1
     lattice parameter (alat)  =      30.0000  a.u.
     unit-cell volume          =   27000.0000 (a.u.)^3
     number of atoms/cell      =            6
     number of atomic types    =            3
     number of electrons       =        14.00
     number of Kohn-Sham states=          100
     kinetic-energy cutoff     =      85.0000  Ry
     charge density cutoff     =     340.0000  Ry
     convergence threshold     =      1.0E-06
     mixing beta               =       0.4000
     number of iterations used =            8  plain     mixing
     Exchange-correlation      = PBE ( 1  4  3  4 0 0)

     celldm(1)=  30.000000  celldm(2)=   0.000000  celldm(3)=   0.000000
     celldm(4)=   0.000000  celldm(5)=   0.000000  celldm(6)=   0.000000

     crystal axes: (cart. coord. in units of alat)
               a(1) = (   1.000000   0.000000   0.000000 )  
               a(2) = (   0.000000   1.000000   0.000000 )  
               a(3) = (   0.000000   0.000000   1.000000 )  

     reciprocal axes: (cart. coord. in units 2 pi/alat)
               b(1) = (  1.000000  0.000000  0.000000 )  
               b(2) = (  0.000000  1.000000  0.000000 )  
               b(3) = (  0.000000  0.000000  1.000000 )  


     PseudoPot. # 1 for C  read from file:
     ~/PseudoPotential/upf/C_ONCV_PBE-1.0.upf
     MD5 check sum: Not computed, couldn't open file
     Pseudo is Norm-conserving, Zval =  4.0
     Generated using ONCVPSP code by D. R. Hamann
     Using radial grid of  602 points,  4 beta functions with: 
                l(1) =   0
                l(2) =   0
                l(3) =   1
                l(4) =   1

     PseudoPot. # 2 for S  read from file:
     ~/PseudoPotential/upf/S_ONCV_PBE-1.0.upf
     MD5 check sum: Not computed, couldn't open file
     Pseudo is Norm-conserving, Zval =  6.0
     Generated using ONCVPSP code by D. R. Hamann
     Using radial grid of  602 points,  4 beta functions with: 
                l(1) =   0
                l(2) =   0
                l(3) =   1
                l(4) =   1

     PseudoPot. # 3 for H  read from file:
     ~/PseudoPotential/upf/H_ONCV_PBE-1.0.upf
     MD5 check sum: Not computed, couldn't open file
     Pseudo is Norm-conserving, Zval =  1.0
     Generated using ONCVPSP code by D. R. Hamann
     Using radial grid of  602 points,  2 beta functions with: 
                l(1) =   0
                l(2) =   0

     atomic species   valence    mass     pseudopotential
        C              4.00     1.00000     C ( 1.00)
        S              6.00     1.00000     S ( 1.00)
        H              1.00     1.00000     H ( 1.00)

     No symmetry found



   Cartesian axes

     site n.     atom                  positions (alat units)
         1           C   tau(   1) = (  -0.0030206   0.0724092   0.0000000  )
         2           S   tau(   2) = (  -0.0030206  -0.0418799   0.0000000  )
         3           H   tau(   3) = (   0.0808221  -0.0518572   0.0000000  )
         4           H   tau(   4) = (  -0.0688239   0.0920566   0.0000000  )
         5           H   tau(   5) = (   0.0272277   0.0977119   0.0562042  )
         6           H   tau(   6) = (   0.0272277   0.0977119  -0.0562042  )

     number of k points=     1
                       cart. coord. in units 2pi/alat
        k(    1) = (   0.0000000   0.0000000   0.0000000), wk =   2.0000000

     Dense  grid:  1429317 G-vectors     FFT dimensions: ( 180, 180, 180)

     Estimated max dynamical RAM per process >      49.07MB

     Estimated total allocated dynamical RAM >    3925.74MB

     Initial potential from superposition of free atoms
     Check: negative starting charge=   -0.000593

     starting charge   13.97417, renormalised to   14.00000

     negative rho (up, down):  5.945E-04 0.000E+00
     Starting wfc are random

     total cpu time spent up to now is        2.8 secs

     per-process dynamical memory:    68.1 Mb

     Self-consistent Calculation

     iteration #  1     ecut=    85.00 Ry     beta=0.40
     Davidson diagonalization with overlap
     ethr =  1.00E-02,  avg # of iterations = 13.0

     negative rho (up, down):  2.403E-04 0.000E+00

     total cpu time spent up to now is        9.5 secs

     total energy              =     -36.54816235 Ry
     Harris-Foulkes estimate   =     -36.80747813 Ry
     estimated scf accuracy    <       0.57782319 Ry

     iteration #  2     ecut=    85.00 Ry     beta=0.40
     Davidson diagonalization with overlap
     ethr =  4.13E-03,  avg # of iterations =  1.0

     negative rho (up, down):  1.021E-04 0.000E+00

     total cpu time spent up to now is       11.0 secs

     total energy              =     -36.61261908 Ry
     Harris-Foulkes estimate   =     -36.63268873 Ry
     estimated scf accuracy    <       0.06473344 Ry

     iteration #  3     ecut=    85.00 Ry     beta=0.40
     Davidson diagonalization with overlap
     ethr =  4.62E-04,  avg # of iterations =  2.0

     negative rho (up, down):  2.147E-05 0.000E+00

     total cpu time spent up to now is       12.5 secs

     total energy              =     -36.61039898 Ry
     Harris-Foulkes estimate   =     -36.61601830 Ry
     estimated scf accuracy    <       0.01559333 Ry

     iteration #  4     ecut=    85.00 Ry     beta=0.40
     Davidson diagonalization with overlap
     ethr =  1.11E-04,  avg # of iterations = 10.0

     negative rho (up, down):  5.599E-06 0.000E+00

     total cpu time spent up to now is       14.5 secs

     total energy              =     -36.61120730 Ry
     Harris-Foulkes estimate   =     -36.61138227 Ry
     estimated scf accuracy    <       0.00064996 Ry

     iteration #  5     ecut=    85.00 Ry     beta=0.40
     Davidson diagonalization with overlap
     ethr =  4.64E-06,  avg # of iterations = 11.0

     negative rho (up, down):  4.014E-07 0.000E+00

     total cpu time spent up to now is       17.4 secs

     total energy              =     -36.61126262 Ry
     Harris-Foulkes estimate   =     -36.61126504 Ry
     estimated scf accuracy    <       0.00003844 Ry

     iteration #  6     ecut=    85.00 Ry     beta=0.40
     Davidson diagonalization with overlap
     ethr =  2.75E-07,  avg # of iterations =  2.0

     negative rho (up, down):  2.887E-07 0.000E+00

     total cpu time spent up to now is       19.0 secs

     total energy              =     -36.61126725 Ry
     Harris-Foulkes estimate   =     -36.61126811 Ry
     estimated scf accuracy    <       0.00000388 Ry

     iteration #  7     ecut=    85.00 Ry     beta=0.40
     Davidson diagonalization with overlap
     ethr =  2.77E-08,  avg # of iterations =  2.0

     total cpu time spent up to now is       20.5 secs

     End of self-consistent calculation

          k = 0.0000 0.0000 0.0000 (178607 PWs)   bands (ev):

   -19.3448 -15.8592 -10.9761 -10.3815  -9.5258  -8.0679  -5.4997  -0.7969
    -0.2810   0.0930   0.3684   0.3853   0.4778   0.5937   0.6641   0.7950
     0.9340   0.9617   1.0204   1.0624   1.0810   1.1053   1.1628   1.2119
     1.2290   1.2380   1.2435   1.4440   1.5926   1.6749   1.6837   1.6989
     1.7379   1.7433   1.7505   1.8171   1.9949   2.0597   2.1259   2.1985
     2.3061   2.3533   2.4514   2.5809   2.6382   2.6525   2.6741   2.7560
     2.7652   2.7933   2.8157   2.8511   2.9279   2.9388   2.9541   2.9851
     2.9904   3.0089   3.0089   3.0111   3.0235   3.0428   3.0429   3.0464
     3.0568   3.1719   3.2113   3.2235   3.3366   3.3696   3.3707   3.4043
     3.4556   3.4601   3.5192   3.5359   3.5425   3.5768   3.5771   3.5821
     3.5841   3.5896   3.5953   3.5960   3.6053   3.6057   3.6131   3.6178
     3.6197   3.7958   3.8765   3.9770   4.2951   4.3733   4.4925   4.5687
     4.5847   4.6345   4.7058   4.7075

     highest occupied, lowest unoccupied level (ev):    -5.4997   -0.7969

!    total energy              =     -36.61126798 Ry
     Harris-Foulkes estimate   =     -36.61126770 Ry
     estimated scf accuracy    <       0.00000030 Ry

     The total energy is the sum of the following terms:

     one-electron contribution =    -103.06000921 Ry
     hartree contribution      =      52.66730935 Ry
     xc contribution           =     -10.79157915 Ry
     ewald contribution        =      24.57301102 Ry

     charge density inside the Wigner-Seitz cell:   14.00000000

     reference position (x0):         0.07767355    0.58710187    0.00000000 bohr

     Dipole moments (with respect to x0):
     Elect   0.2526   0.5365  -0.0000 au (Ha),   0.6421   1.3635  -0.0000 Debye
     Ionic  -0.0000   0.0000   0.0000 au (Ha),  -0.0000   0.0000   0.0000 Debye
     Total   0.2526   0.5365  -0.0000 au (Ha),   0.6421   1.3635  -0.0000 Debye

     Electrons quadrupole moment       -112.82581932 a.u. (Ha)
          Ions quadrupole moment         67.91376455 a.u. (Ha)
         Total quadrupole moment        -44.91205478 a.u. (Ha)

     *********    MAKOV-PAYNE CORRECTION    *********

     Makov-Payne correction with Madelung constant =   2.8373

     Makov-Payne correction     0.00000000 Ry =  0.000 eV (1st order, 1/a0)
                                0.00005455 Ry =  0.001 eV (2nd order, 1/a0^3)
                                0.00005455 Ry =  0.001 eV (total)

!    Total+Makov-Payne energy  =     -36.61121343 Ry
     Corrected vacuum level    =       0.09475705 eV

     convergence has been achieved in   7 iterations

     Writing output data file ./ch3sh.save
 
     init_run     :      1.48s CPU      1.76s WALL (       1 calls)
     electrons    :     17.85s CPU     18.39s WALL (       1 calls)

     Called by init_run:
     wfcinit      :      0.58s CPU      0.63s WALL (       1 calls)
     potinit      :      0.21s CPU      0.27s WALL (       1 calls)

     Called by electrons:
     c_bands      :     14.96s CPU     15.05s WALL (       7 calls)
     sum_band     :      1.82s CPU      1.83s WALL (       7 calls)
     v_of_rho     :      0.80s CPU      0.85s WALL (       8 calls)
     mix_rho      :      0.10s CPU      0.11s WALL (       7 calls)

     Called by c_bands:
     init_us_2    :      0.00s CPU      0.01s WALL (      15 calls)
     regterg      :     14.94s CPU     15.02s WALL (       7 calls)

     Called by sum_band:

     Called by *egterg:
     h_psi        :     11.31s CPU     11.36s WALL (      49 calls)
     g_psi        :      0.03s CPU      0.03s WALL (      41 calls)
     rdiaghg      :      1.84s CPU      1.88s WALL (      48 calls)

     Called by h_psi:
     h_psi:pot    :     11.22s CPU     11.27s WALL (      49 calls)
     h_psi:calbec :      0.09s CPU      0.08s WALL (      49 calls)
     vloc_psi     :     11.11s CPU     11.14s WALL (      49 calls)
     add_vuspsi   :      0.02s CPU      0.04s WALL (      49 calls)

     General routines
     calbec       :      0.09s CPU      0.08s WALL (      49 calls)
     fft          :      0.81s CPU      0.96s WALL (      87 calls)
     fftw         :     12.01s CPU     11.93s WALL (    2794 calls)
 
     Parallel routines
     fft_scatter  :      9.68s CPU      9.42s WALL (    2881 calls)
 
     PWSCF        :    21.69s CPU        27.34s WALL

 
   This run was terminated on:  21: 0:51  18Apr2018            

=------------------------------------------------------------------------------=
   JOB DONE.
=------------------------------------------------------------------------------=
