
     Program PWSCF v.6.1 (svn rev. 13369) starts on 18Apr2018 at 21:16: 4 

     This program is part of the open-source Quantum ESPRESSO suite
     for quantum simulation of materials; please cite
         "P. Giannozzi et al., J. Phys.:Condens. Matter 21 395502 (2009);
          URL http://www.quantum-espresso.org", 
     in publications or presentations arising from this work. More details at
     http://www.quantum-espresso.org/quote

     Parallel version (MPI & OpenMP), running on      80 processor cores
     Number of MPI processes:                80
     Threads/MPI process:                     1
     R & G space division:  proc/nbgrp/npool/nimage =      80
     Waiting for input...
     Reading input from standard input

     Current dimensions of program PWSCF are:
     Max number of different atomic species (ntypx) = 10
     Max number of k-points (npk) =  40000
     Max angular momentum in pseudopotentials (lmaxx) =  3

     gamma-point specific algorithms are used

     Subspace diagonalization in iterative solution of the eigenvalue problem:
     one sub-group per band group will be used
     scalapack distributed-memory algorithm (size of sub-group:  6*  6 procs)

 
     Parallelization info
     --------------------
     sticks:   dense  smooth     PW     G-vecs:    dense   smooth      PW
     Min         303     303     75                35728    35728    4455
     Max         306     306     80                35736    35736    4472
     Sum       24345   24345   6093              2858633  2858633  357213
 


     bravais-lattice index     =            1
     lattice parameter (alat)  =      30.0000  a.u.
     unit-cell volume          =   27000.0000 (a.u.)^3
     number of atoms/cell      =            3
     number of atomic types    =            2
     number of electrons       =        18.00
     number of Kohn-Sham states=          100
     kinetic-energy cutoff     =      85.0000  Ry
     charge density cutoff     =     340.0000  Ry
     convergence threshold     =      1.0E-06
     mixing beta               =       0.4000
     number of iterations used =            8  plain     mixing
     Exchange-correlation      = PBE ( 1  4  3  4 0 0)

     celldm(1)=  30.000000  celldm(2)=   0.000000  celldm(3)=   0.000000
     celldm(4)=   0.000000  celldm(5)=   0.000000  celldm(6)=   0.000000

     crystal axes: (cart. coord. in units of alat)
               a(1) = (   1.000000   0.000000   0.000000 )  
               a(2) = (   0.000000   1.000000   0.000000 )  
               a(3) = (   0.000000   0.000000   1.000000 )  

     reciprocal axes: (cart. coord. in units 2 pi/alat)
               b(1) = (  1.000000  0.000000  0.000000 )  
               b(2) = (  0.000000  1.000000  0.000000 )  
               b(3) = (  0.000000  0.000000  1.000000 )  


     PseudoPot. # 1 for S  read from file:
     ~/PseudoPotential/upf/S_ONCV_PBE-1.0.upf
     MD5 check sum: Not computed, couldn't open file
     Pseudo is Norm-conserving, Zval =  6.0
     Generated using ONCVPSP code by D. R. Hamann
     Using radial grid of  602 points,  4 beta functions with: 
                l(1) =   0
                l(2) =   0
                l(3) =   1
                l(4) =   1

     PseudoPot. # 2 for O  read from file:
     ~/PseudoPotential/upf/O_ONCV_PBE-1.0.upf
     MD5 check sum: Not computed, couldn't open file
     Pseudo is Norm-conserving, Zval =  6.0
     Generated using ONCVPSP code by D. R. Hamann
     Using radial grid of  602 points,  4 beta functions with: 
                l(1) =   0
                l(2) =   0
                l(3) =   1
                l(4) =   1

     atomic species   valence    mass     pseudopotential
        S              6.00     1.00000     S ( 1.00)
        O              6.00     1.00000     O ( 1.00)

     No symmetry found



   Cartesian axes

     site n.     atom                  positions (alat units)
         1           S   tau(   1) = (   0.0000000   0.0000000   0.0233235  )
         2           O   tau(   2) = (   0.0000000   0.0804782  -0.0233235  )
         3           O   tau(   3) = (   0.0000000  -0.0804782  -0.0233235  )

     number of k points=     1
                       cart. coord. in units 2pi/alat
        k(    1) = (   0.0000000   0.0000000   0.0000000), wk =   2.0000000

     Dense  grid:  1429317 G-vectors     FFT dimensions: ( 180, 180, 180)

     Estimated max dynamical RAM per process >      49.07MB

     Estimated total allocated dynamical RAM >    3925.74MB

     Initial potential from superposition of free atoms
     Check: negative starting charge=   -0.000555

     starting charge   17.98776, renormalised to   18.00000

     negative rho (up, down):  5.553E-04 0.000E+00
     Starting wfc are random

     total cpu time spent up to now is        2.7 secs

     per-process dynamical memory:    67.2 Mb

     Self-consistent Calculation

     iteration #  1     ecut=    85.00 Ry     beta=0.40
     Davidson diagonalization with overlap
     ethr =  1.00E-02,  avg # of iterations = 14.0

     negative rho (up, down):  2.091E-04 0.000E+00

     total cpu time spent up to now is        9.4 secs

     total energy              =     -84.05248668 Ry
     Harris-Foulkes estimate   =     -84.49422764 Ry
     estimated scf accuracy    <       0.81744065 Ry

     iteration #  2     ecut=    85.00 Ry     beta=0.40
     Davidson diagonalization with overlap
     ethr =  4.54E-03,  avg # of iterations =  2.0

     negative rho (up, down):  1.311E-04 0.000E+00

     total cpu time spent up to now is       10.9 secs

     total energy              =     -84.25970310 Ry
     Harris-Foulkes estimate   =     -84.33204239 Ry
     estimated scf accuracy    <       0.18582215 Ry

     iteration #  3     ecut=    85.00 Ry     beta=0.40
     Davidson diagonalization with overlap
     ethr =  1.03E-03,  avg # of iterations =  2.0

     negative rho (up, down):  1.150E-05 0.000E+00

     total cpu time spent up to now is       12.5 secs

     total energy              =     -84.28871800 Ry
     Harris-Foulkes estimate   =     -84.29133170 Ry
     estimated scf accuracy    <       0.00935927 Ry

     iteration #  4     ecut=    85.00 Ry     beta=0.40
     Davidson diagonalization with overlap
     ethr =  5.20E-05,  avg # of iterations =  5.0

     negative rho (up, down):  4.280E-06 0.000E+00

     total cpu time spent up to now is       14.2 secs

     total energy              =     -84.28971461 Ry
     Harris-Foulkes estimate   =     -84.28973422 Ry
     estimated scf accuracy    <       0.00018765 Ry

     iteration #  5     ecut=    85.00 Ry     beta=0.40
     Davidson diagonalization with overlap
     ethr =  1.04E-06,  avg # of iterations = 11.0

     negative rho (up, down):  1.407E-06 0.000E+00

     total cpu time spent up to now is       17.4 secs

     total energy              =     -84.28976750 Ry
     Harris-Foulkes estimate   =     -84.28976870 Ry
     estimated scf accuracy    <       0.00004351 Ry

     iteration #  6     ecut=    85.00 Ry     beta=0.40
     Davidson diagonalization with overlap
     ethr =  2.42E-07,  avg # of iterations =  2.0

     negative rho (up, down):  5.828E-07 0.000E+00

     total cpu time spent up to now is       19.0 secs

     total energy              =     -84.28977495 Ry
     Harris-Foulkes estimate   =     -84.28977367 Ry
     estimated scf accuracy    <       0.00000928 Ry

     iteration #  7     ecut=    85.00 Ry     beta=0.40
     Davidson diagonalization with overlap
     ethr =  5.15E-08,  avg # of iterations =  1.0

     negative rho (up, down):  8.032E-08 0.000E+00

     total cpu time spent up to now is       20.5 secs

     total energy              =     -84.28977813 Ry
     Harris-Foulkes estimate   =     -84.28977746 Ry
     estimated scf accuracy    <       0.00000615 Ry

     iteration #  8     ecut=    85.00 Ry     beta=0.40
     Davidson diagonalization with overlap
     ethr =  3.42E-08,  avg # of iterations =  1.0

     total cpu time spent up to now is       21.9 secs

     End of self-consistent calculation

          k = 0.0000 0.0000 0.0000 (178607 PWs)   bands (ev):

   -28.3238 -25.9964 -16.0120 -11.9955 -11.9520 -11.7888  -9.1188  -8.4963
    -7.9425  -4.6377  -0.8661  -0.4357   0.0578   0.1328   0.4005   0.4414
     0.6442   0.6564   0.7185   0.7879   1.0014   1.0281   1.1546   1.1688
     1.1767   1.2226   1.2337   1.2670   1.2702   1.2732   1.2899   1.3763
     1.7317   1.7492   1.7602   1.7605   1.7674   1.8253   1.8504   1.8692
     2.1399   2.2527   2.2716   2.3535   2.4701   2.4768   2.6052   2.7488
     2.7577   2.7912   2.8242   2.8286   2.8653   2.9080   2.9108   2.9215
     2.9840   2.9883   2.9910   3.0403   3.0404   3.0418   3.0481   3.0569
     3.0733   3.0747   3.0771   3.0849   3.1248   3.1565   3.3321   3.3895
     3.4375   3.4384   3.4807   3.4885   3.5273   3.5631   3.5817   3.5915
     3.5986   3.6033   3.6076   3.6101   3.6292   3.6311   3.6356   3.6401
     3.6406   3.6426   3.6548   3.6578   3.7168   3.7617   4.2837   4.4901
     4.5981   4.6549   4.6591   4.6687

     highest occupied, lowest unoccupied level (ev):    -7.9425   -4.6377

!    total energy              =     -84.28978011 Ry
     Harris-Foulkes estimate   =     -84.28977918 Ry
     estimated scf accuracy    <       0.00000087 Ry

     The total energy is the sum of the following terms:

     one-electron contribution =    -208.54986421 Ry
     hartree contribution      =     106.50100754 Ry
     xc contribution           =     -18.33319747 Ry
     ewald contribution        =      36.09227402 Ry

     charge density inside the Wigner-Seitz cell:   18.00000000

     reference position (x0):         0.00000000    0.00000000   -0.23323504 bohr

     Dipole moments (with respect to x0):
     Elect  -0.0000  -0.0001   0.6722 au (Ha),  -0.0000  -0.0002   1.7085 Debye
     Ionic   0.0000   0.0000   0.0000 au (Ha),   0.0000   0.0000   0.0000 Debye
     Total  -0.0000  -0.0001   0.6722 au (Ha),  -0.0000  -0.0002   1.7085 Debye

     Electrons quadrupole moment       -128.12712793 a.u. (Ha)
          Ions quadrupole moment         77.78220876 a.u. (Ha)
         Total quadrupole moment        -50.34491917 a.u. (Ha)

     *********    MAKOV-PAYNE CORRECTION    *********

     Makov-Payne correction with Madelung constant =   2.8373

     Makov-Payne correction     0.00000000 Ry =  0.000 eV (1st order, 1/a0)
                                0.00007010 Ry =  0.001 eV (2nd order, 1/a0^3)
                                0.00007010 Ry =  0.001 eV (total)

!    Total+Makov-Payne energy  =     -84.28971002 Ry
     Corrected vacuum level    =       0.10633614 eV

     convergence has been achieved in   8 iterations

     Writing output data file ./so2.save
 
     init_run     :      1.42s CPU      1.71s WALL (       1 calls)
     electrons    :     19.29s CPU     19.53s WALL (       1 calls)

     Called by init_run:
     wfcinit      :      0.56s CPU      0.62s WALL (       1 calls)
     potinit      :      0.20s CPU      0.27s WALL (       1 calls)

     Called by electrons:
     c_bands      :     16.04s CPU     16.13s WALL (       8 calls)
     sum_band     :      2.07s CPU      2.09s WALL (       8 calls)
     v_of_rho     :      0.89s CPU      0.94s WALL (       9 calls)
     mix_rho      :      0.12s CPU      0.14s WALL (       8 calls)

     Called by c_bands:
     init_us_2    :      0.01s CPU      0.02s WALL (      17 calls)
     regterg      :     16.01s CPU     16.09s WALL (       8 calls)

     Called by sum_band:

     Called by *egterg:
     h_psi        :     12.18s CPU     12.23s WALL (      47 calls)
     g_psi        :      0.03s CPU      0.03s WALL (      38 calls)
     rdiaghg      :      1.87s CPU      1.92s WALL (      46 calls)

     Called by h_psi:
     h_psi:pot    :     12.09s CPU     12.13s WALL (      47 calls)
     h_psi:calbec :      0.10s CPU      0.10s WALL (      47 calls)
     vloc_psi     :     11.96s CPU     11.99s WALL (      47 calls)
     add_vuspsi   :      0.03s CPU      0.04s WALL (      47 calls)

     General routines
     calbec       :      0.10s CPU      0.10s WALL (      47 calls)
     fft          :      0.94s CPU      1.08s WALL (      98 calls)
     fftw         :     13.05s CPU     12.96s WALL (    3026 calls)
 
     Parallel routines
     fft_scatter  :     10.61s CPU     10.31s WALL (    3124 calls)
 
     PWSCF        :    22.92s CPU        26.73s WALL

 
   This run was terminated on:  21:16:31  18Apr2018            

=------------------------------------------------------------------------------=
   JOB DONE.
=------------------------------------------------------------------------------=
