
     Program PWSCF v.6.1 (svn rev. 13369) starts on 25Apr2018 at 13:27:20 

     This program is part of the open-source Quantum ESPRESSO suite
     for quantum simulation of materials; please cite
         "P. Giannozzi et al., J. Phys.:Condens. Matter 21 395502 (2009);
          URL http://www.quantum-espresso.org", 
     in publications or presentations arising from this work. More details at
     http://www.quantum-espresso.org/quote

     Parallel version (MPI & OpenMP), running on      40 processor cores
     Number of MPI processes:                40
     Threads/MPI process:                     1
     R & G space division:  proc/nbgrp/npool/nimage =      40
     Waiting for input...
     Reading input from standard input

     Current dimensions of program PWSCF are:
     Max number of different atomic species (ntypx) = 10
     Max number of k-points (npk) =  40000
     Max angular momentum in pseudopotentials (lmaxx) =  3

     gamma-point specific algorithms are used

     Subspace diagonalization in iterative solution of the eigenvalue problem:
     one sub-group per band group will be used
     scalapack distributed-memory algorithm (size of sub-group:  4*  4 procs)

 
     Parallelization info
     --------------------
     sticks:   dense  smooth     PW     G-vecs:    dense   smooth      PW
     Min         608     608    151                71460    71460    8926
     Max         610     610    158                71470    71470    8932
     Sum       24345   24345   6093              2858633  2858633  357213
 


     bravais-lattice index     =            1
     lattice parameter (alat)  =      30.0000  a.u.
     unit-cell volume          =   27000.0000 (a.u.)^3
     number of atoms/cell      =            9
     number of atomic types    =            3
     number of electrons       =        26.00
     number of Kohn-Sham states=          100
     kinetic-energy cutoff     =      85.0000  Ry
     charge density cutoff     =     340.0000  Ry
     convergence threshold     =      1.0E-06
     mixing beta               =       0.4000
     number of iterations used =            8  plain     mixing
     Exchange-correlation      = PBE ( 1  4  3  4 0 0)

     celldm(1)=  30.000000  celldm(2)=   0.000000  celldm(3)=   0.000000
     celldm(4)=   0.000000  celldm(5)=   0.000000  celldm(6)=   0.000000

     crystal axes: (cart. coord. in units of alat)
               a(1) = (   1.000000   0.000000   0.000000 )  
               a(2) = (   0.000000   1.000000   0.000000 )  
               a(3) = (   0.000000   0.000000   1.000000 )  

     reciprocal axes: (cart. coord. in units 2 pi/alat)
               b(1) = (  1.000000  0.000000  0.000000 )  
               b(2) = (  0.000000  1.000000  0.000000 )  
               b(3) = (  0.000000  0.000000  1.000000 )  


     PseudoPot. # 1 for S  read from file:
     ~/PseudoPotential/upf/S_ONCV_PBE-1.0.upf
     MD5 check sum: Not computed, couldn't open file
     Pseudo is Norm-conserving, Zval =  6.0
     Generated using ONCVPSP code by D. R. Hamann
     Using radial grid of  602 points,  4 beta functions with: 
                l(1) =   0
                l(2) =   0
                l(3) =   1
                l(4) =   1

     PseudoPot. # 2 for C  read from file:
     ~/PseudoPotential/upf/C_ONCV_PBE-1.0.upf
     MD5 check sum: Not computed, couldn't open file
     Pseudo is Norm-conserving, Zval =  4.0
     Generated using ONCVPSP code by D. R. Hamann
     Using radial grid of  602 points,  4 beta functions with: 
                l(1) =   0
                l(2) =   0
                l(3) =   1
                l(4) =   1

     PseudoPot. # 3 for H  read from file:
     ~/PseudoPotential/upf/H_ONCV_PBE-1.0.upf
     MD5 check sum: Not computed, couldn't open file
     Pseudo is Norm-conserving, Zval =  1.0
     Generated using ONCVPSP code by D. R. Hamann
     Using radial grid of  602 points,  2 beta functions with: 
                l(1) =   0
                l(2) =   0

     atomic species   valence    mass     pseudopotential
        S              6.00     1.00000     S ( 1.00)
        C              4.00     1.00000     C ( 1.00)
        H              1.00     1.00000     H ( 1.00)

     No symmetry found



   Cartesian axes

     site n.     atom                  positions (alat units)
         1           S   tau(   1) = (   0.0000000   0.0000000   0.0749436  )
         2           C   tau(   2) = (   0.0000000   0.0777229  -0.0000928  )
         3           C   tau(   3) = (   0.0000000  -0.0777229  -0.0000928  )
         4           C   tau(   4) = (   0.0000000   0.0446714  -0.0801447  )
         5           C   tau(   5) = (   0.0000000  -0.0446714  -0.0801447  )
         6           H   tau(   6) = (   0.0000000   0.1433258   0.0183923  )
         7           H   tau(   7) = (   0.0000000  -0.1433258   0.0183923  )
         8           H   tau(   8) = (   0.0000000   0.0832698  -0.1365158  )
         9           H   tau(   9) = (   0.0000000  -0.0832698  -0.1365158  )

     number of k points=     1
                       cart. coord. in units 2pi/alat
        k(    1) = (   0.0000000   0.0000000   0.0000000), wk =   2.0000000

     Dense  grid:  1429317 G-vectors     FFT dimensions: ( 180, 180, 180)

     Estimated max dynamical RAM per process >      64.06MB

     Estimated total allocated dynamical RAM >    2562.38MB

     Initial potential from superposition of free atoms
     Check: negative starting charge=   -0.000659

     starting charge   25.95327, renormalised to   26.00000

     negative rho (up, down):  6.602E-04 0.000E+00
     Starting wfc are random

     total cpu time spent up to now is        4.4 secs

     per-process dynamical memory:    73.6 Mb

     Self-consistent Calculation

     iteration #  1     ecut=    85.00 Ry     beta=0.40
     Davidson diagonalization with overlap
     ethr =  1.00E-02,  avg # of iterations = 12.0

     negative rho (up, down):  2.448E-04 0.000E+00

     total cpu time spent up to now is       13.5 secs

     total energy              =     -70.46504836 Ry
     Harris-Foulkes estimate   =     -71.18704406 Ry
     estimated scf accuracy    <       1.42946587 Ry

     iteration #  2     ecut=    85.00 Ry     beta=0.40
     Davidson diagonalization with overlap
     ethr =  5.50E-03,  avg # of iterations =  2.0

     negative rho (up, down):  1.088E-04 0.000E+00

     total cpu time spent up to now is       15.8 secs

     total energy              =     -70.71905998 Ry
     Harris-Foulkes estimate   =     -70.80829606 Ry
     estimated scf accuracy    <       0.23007193 Ry

     iteration #  3     ecut=    85.00 Ry     beta=0.40
     Davidson diagonalization with overlap
     ethr =  8.85E-04,  avg # of iterations =  6.0

     negative rho (up, down):  3.352E-05 0.000E+00

     total cpu time spent up to now is       18.5 secs

     total energy              =     -70.73796772 Ry
     Harris-Foulkes estimate   =     -70.75266568 Ry
     estimated scf accuracy    <       0.03920560 Ry

     iteration #  4     ecut=    85.00 Ry     beta=0.40
     Davidson diagonalization with overlap
     ethr =  1.51E-04,  avg # of iterations =  7.0

     negative rho (up, down):  9.512E-06 0.000E+00

     total cpu time spent up to now is       21.4 secs

     total energy              =     -70.74032853 Ry
     Harris-Foulkes estimate   =     -70.74144646 Ry
     estimated scf accuracy    <       0.00419226 Ry

     iteration #  5     ecut=    85.00 Ry     beta=0.40
     Davidson diagonalization with overlap
     ethr =  1.61E-05,  avg # of iterations =  9.0

     negative rho (up, down):  1.943E-06 0.000E+00

     total cpu time spent up to now is       24.2 secs

     total energy              =     -70.74059461 Ry
     Harris-Foulkes estimate   =     -70.74066119 Ry
     estimated scf accuracy    <       0.00042404 Ry

     iteration #  6     ecut=    85.00 Ry     beta=0.40
     Davidson diagonalization with overlap
     ethr =  1.63E-06,  avg # of iterations = 15.0

     negative rho (up, down):  9.910E-08 0.000E+00

     total cpu time spent up to now is       27.8 secs

     total energy              =     -70.74063184 Ry
     Harris-Foulkes estimate   =     -70.74063448 Ry
     estimated scf accuracy    <       0.00003695 Ry

     iteration #  7     ecut=    85.00 Ry     beta=0.40
     Davidson diagonalization with overlap
     ethr =  1.42E-07,  avg # of iterations =  2.0

     negative rho (up, down):  7.026E-08 0.000E+00

     total cpu time spent up to now is       30.1 secs

     total energy              =     -70.74063703 Ry
     Harris-Foulkes estimate   =     -70.74063756 Ry
     estimated scf accuracy    <       0.00000308 Ry

     iteration #  8     ecut=    85.00 Ry     beta=0.40
     Davidson diagonalization with overlap
     ethr =  1.19E-08,  avg # of iterations =  2.0

     total cpu time spent up to now is       32.3 secs

     End of self-consistent calculation

          k = 0.0000 0.0000 0.0000 (178607 PWs)   bands (ev):

   -21.8199 -18.0875 -17.6640 -13.7143 -13.4528 -12.5431  -9.8269  -9.4070
    -9.3159  -9.2153  -8.2723  -6.0883  -5.6859  -1.2126  -0.3203  -0.2148
     0.2980   0.3738   0.3967   0.4119   0.4565   0.4570   0.6006   0.9757
     0.9947   1.0348   1.0827   1.0942   1.1018   1.1101   1.1163   1.1869
     1.2621   1.2720   1.2748   1.5125   1.6014   1.6866   1.7522   1.7543
     1.7554   1.7776   1.8116   1.8259   1.8941   2.1567   2.2182   2.2485
     2.4250   2.5291   2.5628   2.6277   2.6598   2.6655   2.7138   2.7503
     2.7984   2.8091   2.8457   2.8754   2.8938   2.9278   2.9791   3.0082
     3.0202   3.0254   3.0334   3.0426   3.0903   3.0925   3.0936   3.1147
     3.1379   3.1973   3.3140   3.3927   3.4192   3.4210   3.4278   3.4507
     3.4921   3.5191   3.5353   3.5392   3.6059   3.6065   3.6089   3.6097
     3.6186   3.6335   3.6345   3.6357   3.6401   3.6441   3.6569   3.6650
     3.7111   3.8193   4.0843   4.2967

     highest occupied, lowest unoccupied level (ev):    -5.6859   -1.2126

!    total energy              =     -70.74063797 Ry
     Harris-Foulkes estimate   =     -70.74063768 Ry
     estimated scf accuracy    <       0.00000046 Ry

     The total energy is the sum of the following terms:

     one-electron contribution =    -283.12107899 Ry
     hartree contribution      =     143.93079431 Ry
     xc contribution           =     -21.20913722 Ry
     ewald contribution        =      89.65878393 Ry

     charge density inside the Wigner-Seitz cell:   26.00000000

     reference position (x0):         0.00000000    0.00000000   -0.49440643 bohr

     Dipole moments (with respect to x0):
     Elect   0.0000  -0.0001  -0.1614 au (Ha),   0.0000  -0.0002  -0.4103 Debye
     Ionic   0.0000   0.0000   0.0000 au (Ha),   0.0000   0.0000   0.0000 Debye
     Total   0.0000  -0.0001  -0.1614 au (Ha),   0.0000  -0.0002  -0.4103 Debye

     Electrons quadrupole moment       -288.52058286 a.u. (Ha)
          Ions quadrupole moment        211.69458098 a.u. (Ha)
         Total quadrupole moment        -76.82600188 a.u. (Ha)

     *********    MAKOV-PAYNE CORRECTION    *********

     Makov-Payne correction with Madelung constant =   2.8373

     Makov-Payne correction     0.00000000 Ry =  0.000 eV (1st order, 1/a0)
                                0.00000404 Ry =  0.000 eV (2nd order, 1/a0^3)
                                0.00000404 Ry =  0.000 eV (total)

!    Total+Makov-Payne energy  =     -70.74063393 Ry
     Corrected vacuum level    =       0.16182714 eV

     convergence has been achieved in   8 iterations

     Writing output data file ./c4h4s.save
 
     init_run     :      1.98s CPU      2.58s WALL (       1 calls)
     electrons    :     26.39s CPU     28.37s WALL (       1 calls)

     Called by init_run:
     wfcinit      :      0.81s CPU      0.91s WALL (       1 calls)
     potinit      :      0.34s CPU      0.55s WALL (       1 calls)

     Called by electrons:
     c_bands      :     21.61s CPU     21.99s WALL (       8 calls)
     sum_band     :      2.92s CPU      3.11s WALL (       8 calls)
     v_of_rho     :      1.51s CPU      2.75s WALL (       9 calls)
     mix_rho      :      0.22s CPU      0.33s WALL (       8 calls)

     Called by c_bands:
     init_us_2    :      0.05s CPU      0.06s WALL (      17 calls)
     regterg      :     21.52s CPU     21.90s WALL (       8 calls)

     Called by sum_band:

     Called by *egterg:
     h_psi        :     16.44s CPU     16.52s WALL (      64 calls)
     g_psi        :      0.06s CPU      0.06s WALL (      55 calls)
     rdiaghg      :      1.71s CPU      1.81s WALL (      63 calls)

     Called by h_psi:
     h_psi:pot    :     16.24s CPU     16.31s WALL (      64 calls)
     h_psi:calbec :      0.26s CPU      0.25s WALL (      64 calls)
     vloc_psi     :     15.83s CPU     15.88s WALL (      64 calls)
     add_vuspsi   :      0.15s CPU      0.18s WALL (      64 calls)

     General routines
     calbec       :      0.26s CPU      0.25s WALL (      64 calls)
     fft          :      1.42s CPU      2.69s WALL (      98 calls)
     fftw         :     15.23s CPU     15.14s WALL (    3142 calls)
 
     Parallel routines
     fft_scatter  :      9.59s CPU      9.79s WALL (    3240 calls)
 
     PWSCF        :    30.42s CPU        36.74s WALL

 
   This run was terminated on:  13:27:56  25Apr2018            

=------------------------------------------------------------------------------=
   JOB DONE.
=------------------------------------------------------------------------------=
