
     Program PWSCF v.6.1 (svn rev. 13369) starts on 18Apr2018 at 21:14:56 

     This program is part of the open-source Quantum ESPRESSO suite
     for quantum simulation of materials; please cite
         "P. Giannozzi et al., J. Phys.:Condens. Matter 21 395502 (2009);
          URL http://www.quantum-espresso.org", 
     in publications or presentations arising from this work. More details at
     http://www.quantum-espresso.org/quote

     Parallel version (MPI & OpenMP), running on      80 processor cores
     Number of MPI processes:                80
     Threads/MPI process:                     1
     R & G space division:  proc/nbgrp/npool/nimage =      80
     Waiting for input...
     Reading input from standard input

     Current dimensions of program PWSCF are:
     Max number of different atomic species (ntypx) = 10
     Max number of k-points (npk) =  40000
     Max angular momentum in pseudopotentials (lmaxx) =  3

     gamma-point specific algorithms are used

     Subspace diagonalization in iterative solution of the eigenvalue problem:
     one sub-group per band group will be used
     scalapack distributed-memory algorithm (size of sub-group:  6*  6 procs)

 
     Parallelization info
     --------------------
     sticks:   dense  smooth     PW     G-vecs:    dense   smooth      PW
     Min         303     303     75                35728    35728    4455
     Max         306     306     80                35736    35736    4472
     Sum       24345   24345   6093              2858633  2858633  357213
 


     bravais-lattice index     =            1
     lattice parameter (alat)  =      30.0000  a.u.
     unit-cell volume          =   27000.0000 (a.u.)^3
     number of atoms/cell      =            5
     number of atomic types    =            2
     number of electrons       =         8.00
     number of Kohn-Sham states=          100
     kinetic-energy cutoff     =      85.0000  Ry
     charge density cutoff     =     340.0000  Ry
     convergence threshold     =      1.0E-06
     mixing beta               =       0.4000
     number of iterations used =            8  plain     mixing
     Exchange-correlation      = PBE ( 1  4  3  4 0 0)

     celldm(1)=  30.000000  celldm(2)=   0.000000  celldm(3)=   0.000000
     celldm(4)=   0.000000  celldm(5)=   0.000000  celldm(6)=   0.000000

     crystal axes: (cart. coord. in units of alat)
               a(1) = (   1.000000   0.000000   0.000000 )  
               a(2) = (   0.000000   1.000000   0.000000 )  
               a(3) = (   0.000000   0.000000   1.000000 )  

     reciprocal axes: (cart. coord. in units 2 pi/alat)
               b(1) = (  1.000000  0.000000  0.000000 )  
               b(2) = (  0.000000  1.000000  0.000000 )  
               b(3) = (  0.000000  0.000000  1.000000 )  


     PseudoPot. # 1 for Si read from file:
     ~/PseudoPotential/upf/Si_ONCV_PBE-1.0.upf
     MD5 check sum: Not computed, couldn't open file
     Pseudo is Norm-conserving, Zval =  4.0
     Generated using ONCVPSP code by D. R. Hamann
     Using radial grid of  602 points,  4 beta functions with: 
                l(1) =   0
                l(2) =   0
                l(3) =   1
                l(4) =   1

     PseudoPot. # 2 for H  read from file:
     ~/PseudoPotential/upf/H_ONCV_PBE-1.0.upf
     MD5 check sum: Not computed, couldn't open file
     Pseudo is Norm-conserving, Zval =  1.0
     Generated using ONCVPSP code by D. R. Hamann
     Using radial grid of  602 points,  2 beta functions with: 
                l(1) =   0
                l(2) =   0

     atomic species   valence    mass     pseudopotential
        Si             4.00     1.00000     Si( 1.00)
        H              1.00     1.00000     H ( 1.00)

     No symmetry found



   Cartesian axes

     site n.     atom                  positions (alat units)
         1           Si  tau(   1) = (   0.0000000   0.0000000   0.0000000  )
         2           H   tau(   2) = (   0.0539287   0.0539287   0.0539287  )
         3           H   tau(   3) = (  -0.0539287  -0.0539287   0.0539287  )
         4           H   tau(   4) = (  -0.0539287   0.0539287  -0.0539287  )
         5           H   tau(   5) = (   0.0539287  -0.0539287  -0.0539287  )

     number of k points=     1
                       cart. coord. in units 2pi/alat
        k(    1) = (   0.0000000   0.0000000   0.0000000), wk =   2.0000000

     Dense  grid:  1429317 G-vectors     FFT dimensions: ( 180, 180, 180)

     Estimated max dynamical RAM per process >      49.07MB

     Estimated total allocated dynamical RAM >    3925.74MB

     Initial potential from superposition of free atoms
     Check: negative starting charge=   -0.001403

     starting charge    7.94524, renormalised to    8.00000

     negative rho (up, down):  1.413E-03 0.000E+00
     Starting wfc are random

     total cpu time spent up to now is        2.7 secs

     per-process dynamical memory:    66.7 Mb

     Self-consistent Calculation

     iteration #  1     ecut=    85.00 Ry     beta=0.40
     Davidson diagonalization with overlap
     ethr =  1.00E-02,  avg # of iterations = 13.0

     negative rho (up, down):  7.606E-04 0.000E+00

     total cpu time spent up to now is        9.4 secs

     total energy              =     -12.55929932 Ry
     Harris-Foulkes estimate   =     -12.63746441 Ry
     estimated scf accuracy    <       0.26736310 Ry

     iteration #  2     ecut=    85.00 Ry     beta=0.40
     Davidson diagonalization with overlap
     ethr =  3.34E-03,  avg # of iterations =  1.0

     negative rho (up, down):  1.234E-04 0.000E+00

     total cpu time spent up to now is       10.9 secs

     total energy              =     -12.53628118 Ry
     Harris-Foulkes estimate   =     -12.56507646 Ry
     estimated scf accuracy    <       0.06551208 Ry

     iteration #  3     ecut=    85.00 Ry     beta=0.40
     Davidson diagonalization with overlap
     ethr =  8.19E-04,  avg # of iterations =  1.0

     negative rho (up, down):  3.293E-05 0.000E+00

     total cpu time spent up to now is       12.4 secs

     total energy              =     -12.54280016 Ry
     Harris-Foulkes estimate   =     -12.54285391 Ry
     estimated scf accuracy    <       0.00045657 Ry

     iteration #  4     ecut=    85.00 Ry     beta=0.40
     Davidson diagonalization with overlap
     ethr =  5.71E-06,  avg # of iterations = 11.0

     negative rho (up, down):  1.809E-05 0.000E+00

     total cpu time spent up to now is       15.7 secs

     total energy              =     -12.54287983 Ry
     Harris-Foulkes estimate   =     -12.54298100 Ry
     estimated scf accuracy    <       0.00021749 Ry

     iteration #  5     ecut=    85.00 Ry     beta=0.40
     Davidson diagonalization with overlap
     ethr =  2.72E-06,  avg # of iterations =  2.0

     negative rho (up, down):  2.216E-06 0.000E+00

     total cpu time spent up to now is       17.2 secs

     total energy              =     -12.54291594 Ry
     Harris-Foulkes estimate   =     -12.54296393 Ry
     estimated scf accuracy    <       0.00011827 Ry

     iteration #  6     ecut=    85.00 Ry     beta=0.40
     Davidson diagonalization with overlap
     ethr =  1.48E-06,  avg # of iterations =  1.0

     negative rho (up, down):  3.677E-07 0.000E+00

     total cpu time spent up to now is       18.7 secs

     total energy              =     -12.54292595 Ry
     Harris-Foulkes estimate   =     -12.54292739 Ry
     estimated scf accuracy    <       0.00000272 Ry

     iteration #  7     ecut=    85.00 Ry     beta=0.40
     Davidson diagonalization with overlap
     ethr =  3.40E-08,  avg # of iterations =  2.0

     total cpu time spent up to now is       20.2 secs

     End of self-consistent calculation

          k = 0.0000 0.0000 0.0000 (178607 PWs)   bands (ev):

   -13.4044  -8.4369  -8.4369  -8.4369  -0.4438   0.0196   0.0196   0.0196
     0.2542   0.4971   0.4971   0.4971   0.5720   0.5720   1.0036   1.0143
     1.0143   1.0143   1.1099   1.1099   1.2235   1.2235   1.2235   1.2844
     1.2844   1.2844   1.6181   1.6181   1.7160   1.7298   1.7298   1.7298
     1.7842   1.8590   1.8590   1.8590   2.2826   2.2827   2.2827   2.3524
     2.5875   2.5875   2.7726   2.8228   2.8228   2.8228   2.8341   2.8341
     2.8341   2.9265   2.9265   2.9265   2.9920   2.9920   2.9921   3.0058
     3.0058   3.0322   3.0322   3.0322   3.0428   3.0471   3.0471   3.0471
     3.2010   3.3670   3.3670   3.4686   3.4686   3.4686   3.5369   3.5370
     3.5370   3.5660   3.5661   3.5661   3.5728   3.5740   3.5740   3.5740
     3.5839   3.5839   3.5839   3.6073   3.6073   3.6673   3.6673   3.6673
     3.9345   3.9345   4.3466   4.5429   4.5429   4.5429   4.7403   4.7404
     4.7405   4.7664   4.7665   4.8171

     highest occupied, lowest unoccupied level (ev):    -8.4369   -0.4438

!    total energy              =     -12.54292661 Ry
     Harris-Foulkes estimate   =     -12.54292658 Ry
     estimated scf accuracy    <       0.00000007 Ry

     The total energy is the sum of the following terms:

     one-electron contribution =     -31.80136569 Ry
     hartree contribution      =      16.37381068 Ry
     xc contribution           =      -5.14302035 Ry
     ewald contribution        =       8.02764875 Ry

     charge density inside the Wigner-Seitz cell:    8.00000000

     reference position (x0):         0.00000000    0.00000000    0.00000000 bohr

     Dipole moments (with respect to x0):
     Elect   0.0000  -0.0000  -0.0000 au (Ha),   0.0000  -0.0000  -0.0000 Debye
     Ionic   0.0000   0.0000   0.0000 au (Ha),   0.0000   0.0000   0.0000 Debye
     Total   0.0000  -0.0000  -0.0000 au (Ha),   0.0000  -0.0000  -0.0000 Debye

     Electrons quadrupole moment        -65.43107957 a.u. (Ha)
          Ions quadrupole moment         31.40967827 a.u. (Ha)
         Total quadrupole moment        -34.02140130 a.u. (Ha)

     *********    MAKOV-PAYNE CORRECTION    *********

     Makov-Payne correction with Madelung constant =   2.8373

     Makov-Payne correction     0.00000000 Ry =  0.000 eV (1st order, 1/a0)
                                0.00000000 Ry =  0.000 eV (2nd order, 1/a0^3)
                                0.00000000 Ry =  0.000 eV (total)

!    Total+Makov-Payne energy  =     -12.54292661 Ry
     Corrected vacuum level    =       0.07194065 eV

     convergence has been achieved in   7 iterations

     Writing output data file ./sih4.save
 
     init_run     :      1.42s CPU      1.69s WALL (       1 calls)
     electrons    :     17.60s CPU     17.91s WALL (       1 calls)

     Called by init_run:
     wfcinit      :      0.56s CPU      0.61s WALL (       1 calls)
     potinit      :      0.18s CPU      0.26s WALL (       1 calls)

     Called by electrons:
     c_bands      :     14.71s CPU     14.80s WALL (       7 calls)
     sum_band     :      1.82s CPU      1.83s WALL (       7 calls)
     v_of_rho     :      0.80s CPU      0.85s WALL (       8 calls)
     mix_rho      :      0.11s CPU      0.11s WALL (       7 calls)

     Called by c_bands:
     init_us_2    :      0.00s CPU      0.01s WALL (      15 calls)
     regterg      :     14.69s CPU     14.77s WALL (       7 calls)

     Called by sum_band:

     Called by *egterg:
     h_psi        :     11.26s CPU     11.31s WALL (      39 calls)
     g_psi        :      0.03s CPU      0.03s WALL (      31 calls)
     rdiaghg      :      1.65s CPU      1.70s WALL (      38 calls)

     Called by h_psi:
     h_psi:pot    :     11.17s CPU     11.22s WALL (      39 calls)
     h_psi:calbec :      0.08s CPU      0.08s WALL (      39 calls)
     vloc_psi     :     11.07s CPU     11.10s WALL (      39 calls)
     add_vuspsi   :      0.02s CPU      0.04s WALL (      39 calls)

     General routines
     calbec       :      0.08s CPU      0.07s WALL (      39 calls)
     fft          :      0.84s CPU      0.98s WALL (      87 calls)
     fftw         :     12.00s CPU     11.89s WALL (    2780 calls)
 
     Parallel routines
     fft_scatter  :      9.79s CPU      9.43s WALL (    2867 calls)
 
     PWSCF        :    21.28s CPU        24.87s WALL

 
   This run was terminated on:  21:15:21  18Apr2018            

=------------------------------------------------------------------------------=
   JOB DONE.
=------------------------------------------------------------------------------=
