
     Program PWSCF v.6.1 (svn rev. 13369) starts on 21Sep2017 at 14: 0:41 

     This program is part of the open-source Quantum ESPRESSO suite
     for quantum simulation of materials; please cite
         "P. Giannozzi et al., J. Phys.:Condens. Matter 21 395502 (2009);
          URL http://www.quantum-espresso.org", 
     in publications or presentations arising from this work. More details at
     http://www.quantum-espresso.org/quote

     Parallel version (MPI & OpenMP), running on      40 processor cores
     Number of MPI processes:                40
     Threads/MPI process:                     1
     R & G space division:  proc/nbgrp/npool/nimage =      40
     Waiting for input...
     Reading input from standard input

     Current dimensions of program PWSCF are:
     Max number of different atomic species (ntypx) = 10
     Max number of k-points (npk) =  40000
     Max angular momentum in pseudopotentials (lmaxx) =  3

     gamma-point specific algorithms are used

     Subspace diagonalization in iterative solution of the eigenvalue problem:
     one sub-group per band group will be used
     scalapack distributed-memory algorithm (size of sub-group:  4*  4 procs)

     Found symmetry operation: I + (  0.2500  0.2500  0.0000)
     This is a supercell, fractional translations are disabled
 
     Parallelization info
     --------------------
     sticks:   dense  smooth     PW     G-vecs:    dense   smooth      PW
     Min         133     133     31                 7394     7394     919
     Max         136     136     34                 7404     7404     934
     Sum        5377    5377   1353               295907   295907   37073
 


     bravais-lattice index     =            1
     lattice parameter (alat)  =      20.5280  a.u.
     unit-cell volume          =    8650.4742 (a.u.)^3
     number of atoms/cell      =           64
     number of atomic types    =            1
     number of electrons       =       256.00
     number of Kohn-Sham states=          250
     kinetic-energy cutoff     =      40.0000  Ry
     charge density cutoff     =     160.0000  Ry
     convergence threshold     =      1.0E-06
     mixing beta               =       0.7000
     number of iterations used =            8  plain     mixing
     Exchange-correlation      = PBE ( 1  4  3  4 0 0)

     celldm(1)=  20.528000  celldm(2)=   0.000000  celldm(3)=   0.000000
     celldm(4)=   0.000000  celldm(5)=   0.000000  celldm(6)=   0.000000

     crystal axes: (cart. coord. in units of alat)
               a(1) = (   1.000000   0.000000   0.000000 )  
               a(2) = (   0.000000   1.000000   0.000000 )  
               a(3) = (   0.000000   0.000000   1.000000 )  

     reciprocal axes: (cart. coord. in units 2 pi/alat)
               b(1) = (  1.000000  0.000000  0.000000 )  
               b(2) = (  0.000000  1.000000  0.000000 )  
               b(3) = (  0.000000  0.000000  1.000000 )  


     PseudoPot. # 1 for Si read from file:
     ./Si_ONCV_PBE-1.1.upf
     MD5 check sum: 893f9c914d8b8e384479fa6fd8b59ac5
     Pseudo is Norm-conserving, Zval =  4.0
     Generated using ONCVPSP code by D. R. Hamann
     Using radial grid of  602 points,  4 beta functions with: 
                l(1) =   0
                l(2) =   0
                l(3) =   1
                l(4) =   1

     atomic species   valence    mass     pseudopotential
        Si             4.00    28.08600     Si( 1.00)

     No symmetry found



   Cartesian axes

     site n.     atom                  positions (alat units)
         1           Si  tau(   1) = (   0.0625000   0.0625000   0.0625000  )
         2           Si  tau(   2) = (   0.3124999   0.3124999   0.0625000  )
         3           Si  tau(   3) = (   0.3124999   0.0625000   0.3124999  )
         4           Si  tau(   4) = (   0.0625000   0.3124999   0.3124999  )
         5           Si  tau(   5) = (   0.1874999   0.1874999   0.4374998  )
         6           Si  tau(   6) = (   0.0625000   0.0625000   0.5624998  )
         7           Si  tau(   7) = (   0.3124999   0.3124999   0.5624998  )
         8           Si  tau(   8) = (   0.3124999   0.0625000   0.8124997  )
         9           Si  tau(   9) = (   0.0625000   0.3124999   0.8124997  )
        10           Si  tau(  10) = (   0.1874999   0.1874999   0.9374996  )
        11           Si  tau(  11) = (   0.1874999   0.4374998   0.1874999  )
        12           Si  tau(  12) = (   0.0625000   0.5624998   0.0625000  )
        13           Si  tau(  13) = (   0.3124999   0.8124997   0.0625000  )
        14           Si  tau(  14) = (   0.3124999   0.5624998   0.3124999  )
        15           Si  tau(  15) = (   0.0625000   0.8124997   0.3124999  )
        16           Si  tau(  16) = (   0.1874999   0.6874997   0.4374998  )
        17           Si  tau(  17) = (   0.1874999   0.4374998   0.6874997  )
        18           Si  tau(  18) = (   0.0625000   0.5624998   0.5624998  )
        19           Si  tau(  19) = (   0.3124999   0.8124997   0.5624998  )
        20           Si  tau(  20) = (   0.3124999   0.5624998   0.8124997  )
        21           Si  tau(  21) = (   0.0625000   0.8124997   0.8124997  )
        22           Si  tau(  22) = (   0.1874999   0.6874997   0.9374996  )
        23           Si  tau(  23) = (   0.1874999   0.9374996   0.1874999  )
        24           Si  tau(  24) = (   0.1874999   0.9374996   0.6874997  )
        25           Si  tau(  25) = (   0.4374998   0.1874999   0.1874999  )
        26           Si  tau(  26) = (   0.5624998   0.0625000   0.0625000  )
        27           Si  tau(  27) = (   0.8124997   0.3124999   0.0625000  )
        28           Si  tau(  28) = (   0.8124997   0.0625000   0.3124999  )
        29           Si  tau(  29) = (   0.5624998   0.3124999   0.3124999  )
        30           Si  tau(  30) = (   0.6874997   0.1874999   0.4374998  )
        31           Si  tau(  31) = (   0.4374998   0.1874999   0.6874997  )
        32           Si  tau(  32) = (   0.5624998   0.0625000   0.5624998  )
        33           Si  tau(  33) = (   0.8124997   0.3124999   0.5624998  )
        34           Si  tau(  34) = (   0.8124997   0.0625000   0.8124997  )
        35           Si  tau(  35) = (   0.5624998   0.3124999   0.8124997  )
        36           Si  tau(  36) = (   0.6874997   0.1874999   0.9374996  )
        37           Si  tau(  37) = (   0.6874997   0.4374998   0.1874999  )
        38           Si  tau(  38) = (   0.4374998   0.6874997   0.1874999  )
        39           Si  tau(  39) = (   0.5624998   0.5624998   0.0625000  )
        40           Si  tau(  40) = (   0.8124997   0.8124997   0.0625000  )
        41           Si  tau(  41) = (   0.8124997   0.5624998   0.3124999  )
        42           Si  tau(  42) = (   0.5624998   0.8124997   0.3124999  )
        43           Si  tau(  43) = (   0.4374998   0.4374998   0.4374998  )
        44           Si  tau(  44) = (   0.6874997   0.6874997   0.4374998  )
        45           Si  tau(  45) = (   0.6874997   0.4374998   0.6874997  )
        46           Si  tau(  46) = (   0.4374998   0.6874997   0.6874997  )
        47           Si  tau(  47) = (   0.5624998   0.5624998   0.5624998  )
        48           Si  tau(  48) = (   0.8124997   0.8124997   0.5624998  )
        49           Si  tau(  49) = (   0.8124997   0.5624998   0.8124997  )
        50           Si  tau(  50) = (   0.5624998   0.8124997   0.8124997  )
        51           Si  tau(  51) = (   0.4374998   0.4374998   0.9374996  )
        52           Si  tau(  52) = (   0.6874997   0.6874997   0.9374996  )
        53           Si  tau(  53) = (   0.6874997   0.9374996   0.1874999  )
        54           Si  tau(  54) = (   0.4374998   0.9374996   0.4374998  )
        55           Si  tau(  55) = (   0.6874997   0.9374996   0.6874997  )
        56           Si  tau(  56) = (   0.4374998   0.9374996   0.9374996  )
        57           Si  tau(  57) = (   0.9374996   0.1874999   0.1874999  )
        58           Si  tau(  58) = (   0.9374996   0.1874999   0.6874997  )
        59           Si  tau(  59) = (   0.9374996   0.6874997   0.1874999  )
        60           Si  tau(  60) = (   0.9374996   0.4374998   0.4374998  )
        61           Si  tau(  61) = (   0.9374996   0.6874997   0.6874997  )
        62           Si  tau(  62) = (   0.9374996   0.4374998   0.9374996  )
        63           Si  tau(  63) = (   0.9374996   0.9374996   0.4374998  )
        64           Si  tau(  64) = (   0.9374996   0.9374996   0.9374996  )

     number of k points=     1
                       cart. coord. in units 2pi/alat
        k(    1) = (   0.0000000   0.0000000   0.0000000), wk =   2.0000000

     Dense  grid:   147954 G-vectors     FFT dimensions: (  90,  90,  90)

     Estimated max dynamical RAM per process >      17.47MB

     Estimated total allocated dynamical RAM >     698.99MB

     Initial potential from superposition of free atoms

     starting charge  253.04156, renormalised to  256.00000
     Starting wfc are random

     total cpu time spent up to now is        4.8 secs

     per-process dynamical memory:    40.5 Mb

     Self-consistent Calculation

     iteration #  1     ecut=    40.00 Ry     beta=0.70
     Davidson diagonalization with overlap
     ethr =  1.00E-02,  avg # of iterations =  9.0

     Threshold (ethr) on eigenvalues was too large:
     Diagonalizing with lowered threshold

     Davidson diagonalization with overlap
     ethr =  7.51E-04,  avg # of iterations =  3.0

     total cpu time spent up to now is       11.0 secs

     total energy              =    -503.90733125 Ry
     Harris-Foulkes estimate   =    -504.38856210 Ry
     estimated scf accuracy    <       1.92719212 Ry

     iteration #  2     ecut=    40.00 Ry     beta=0.70
     Davidson diagonalization with overlap
     ethr =  7.53E-04,  avg # of iterations =  1.0

     total cpu time spent up to now is       12.2 secs

     total energy              =    -503.99427592 Ry
     Harris-Foulkes estimate   =    -503.99285831 Ry
     estimated scf accuracy    <       0.07572601 Ry

     iteration #  3     ecut=    40.00 Ry     beta=0.70
     Davidson diagonalization with overlap
     ethr =  2.96E-05,  avg # of iterations =  6.0

     total cpu time spent up to now is       14.4 secs

     total energy              =    -503.99829361 Ry
     Harris-Foulkes estimate   =    -503.99885265 Ry
     estimated scf accuracy    <       0.00246913 Ry

     iteration #  4     ecut=    40.00 Ry     beta=0.70
     Davidson diagonalization with overlap
     ethr =  9.65E-07,  avg # of iterations = 11.0

     total cpu time spent up to now is       17.9 secs

     total energy              =    -503.99709832 Ry
     Harris-Foulkes estimate   =    -504.00202331 Ry
     estimated scf accuracy    <       0.01725652 Ry

     iteration #  5     ecut=    40.00 Ry     beta=0.70
     Davidson diagonalization with overlap
     ethr =  9.65E-07,  avg # of iterations =  3.0

     total cpu time spent up to now is       19.6 secs

     total energy              =    -503.99938552 Ry
     Harris-Foulkes estimate   =    -503.99940517 Ry
     estimated scf accuracy    <       0.00004673 Ry

     iteration #  6     ecut=    40.00 Ry     beta=0.70
     Davidson diagonalization with overlap
     ethr =  1.83E-08,  avg # of iterations =  2.0

     total cpu time spent up to now is       21.0 secs

     total energy              =    -503.99940020 Ry
     Harris-Foulkes estimate   =    -503.99941037 Ry
     estimated scf accuracy    <       0.00003103 Ry

     iteration #  7     ecut=    40.00 Ry     beta=0.70
     Davidson diagonalization with overlap
     ethr =  1.21E-08,  avg # of iterations =  2.0

     total cpu time spent up to now is       22.3 secs

     total energy              =    -503.99940618 Ry
     Harris-Foulkes estimate   =    -503.99940689 Ry
     estimated scf accuracy    <       0.00000204 Ry

     iteration #  8     ecut=    40.00 Ry     beta=0.70
     Davidson diagonalization with overlap
     ethr =  7.98E-10,  avg # of iterations =  2.0

     total cpu time spent up to now is       23.6 secs

     End of self-consistent calculation

          k = 0.0000 0.0000 0.0000 ( 18537 PWs)   bands (ev):

    -5.6967  -4.6148  -4.6148  -4.6148  -4.6148  -4.6148  -4.6147  -3.6527
    -3.6527  -3.6527  -3.6527  -3.6526  -3.6526  -3.6526  -3.6526  -3.6526
    -3.6526  -3.6526  -3.6525  -3.3644  -3.3644  -3.3644  -3.3643  -1.5516
    -1.5516  -1.5515  -1.5515  -1.5515  -1.5515  -1.3871  -1.3871  -1.3871
    -1.3871  -1.3870  -1.3870  -1.3870  -1.3870  -1.3870  -1.3870  -1.3870
    -1.3870  -0.7071  -0.7071  -0.7071  -0.7071   0.7852   0.7852   0.7852
     0.7853   0.7853   0.7853   0.7853   0.7853   0.7853   0.7853   0.7853
     0.7853   2.4104   2.4104   2.4104   2.4104   2.4104   2.4105   2.4105
     2.4105   2.4105   2.4105   2.4105   2.4105   2.5102   2.5102   2.5102
     2.5102   2.5102   2.5102   2.5102   2.5102   2.5102   2.5102   2.5102
     2.5103   2.7489   2.7489   2.7489   2.7489   2.7489   2.7490   3.4178
     3.4178   3.4178   3.4178   3.4178   3.4178   4.3789   4.3789   4.3789
     4.3789   4.3790   4.3790   4.3790   4.3790   4.3790   4.3790   4.3790
     4.3790   4.9435   4.9436   4.9436   4.9436   4.9436   4.9436   4.9436
     4.9436   4.9436   4.9436   4.9436   4.9436   5.0740   5.0740   5.0740
     5.0740   5.0741   5.0741   5.0741   5.0741   6.2703   6.2703   6.2703
     6.9437   6.9437   6.9437   6.9437   6.9437   6.9438   7.3714   7.3714
     7.3714   7.3714   7.3714   7.3714   7.7757   7.7757   7.7757   7.7758
     8.6862   8.6862   8.6862   8.6862   8.6862   8.6862   8.6862   8.6862
     8.6862   8.6862   8.6862   8.6863   8.8110   8.8110   8.8110   9.3619
     9.3619   9.3619   9.3620   9.3620   9.3620   9.5746   9.5746   9.5746
     9.5746   9.5746   9.5746   9.5746   9.5746   9.6018  10.5057  10.5057
    10.5057  10.5057  10.5057  10.5057  10.5057  10.5057  10.5057  10.5057
    10.5057  10.5057  11.0324  11.0324  11.0324  11.0324  11.0324  11.0324
    11.0324  11.0324  11.0324  11.0324  11.0324  11.0324  11.2404  11.2404
    11.2405  11.2405  11.2405  11.2405  11.2405  11.2405  11.2405  11.2405
    11.2405  11.2405  11.3723  11.3723  11.3723  11.3723  11.3723  11.3723
    11.3723  11.3723  11.3723  11.3723  11.3723  11.3724  12.0010  12.0010
    12.0010  12.0010  12.0010  12.0010  12.0010  12.0010  12.0010  12.0010
    12.0010  12.0010  12.3868  12.3868  12.3868  12.3868  12.3868  12.3869
    12.3869  12.3869  12.3869  12.3869  12.3869  12.3869  12.6606  12.6607
    12.6607  12.6607

     highest occupied, lowest unoccupied level (ev):     6.2703    6.9437

!    total energy              =    -503.99940664 Ry
     Harris-Foulkes estimate   =    -503.99940674 Ry
     estimated scf accuracy    <       0.00000019 Ry

     The total energy is the sum of the following terms:

     one-electron contribution =     151.74459400 Ry
     hartree contribution      =      36.15850756 Ry
     xc contribution           =    -154.48228244 Ry
     ewald contribution        =    -537.42022576 Ry

     convergence has been achieved in   8 iterations

     Writing output data file si-oncv.save
 
     init_run     :      0.59s CPU      1.55s WALL (       1 calls)
     electrons    :     17.28s CPU     18.93s WALL (       1 calls)

     Called by init_run:
     wfcinit      :      0.46s CPU      0.72s WALL (       1 calls)
     potinit      :      0.05s CPU      0.19s WALL (       1 calls)

     Called by electrons:
     c_bands      :     15.61s CPU     16.73s WALL (       9 calls)
     sum_band     :      1.38s CPU      1.77s WALL (       9 calls)
     v_of_rho     :      0.22s CPU      0.33s WALL (       9 calls)
     mix_rho      :      0.04s CPU      0.08s WALL (       9 calls)

     Called by c_bands:
     init_us_2    :      0.02s CPU      0.04s WALL (      19 calls)
     regterg      :     15.50s CPU     16.59s WALL (       9 calls)

     Called by sum_band:

     Called by *egterg:
     h_psi        :      9.02s CPU     10.11s WALL (      49 calls)
     g_psi        :      0.01s CPU      0.01s WALL (      39 calls)
     rdiaghg      :      5.37s CPU      5.49s WALL (      47 calls)

     Called by h_psi:
     h_psi:pot    :      8.99s CPU     10.07s WALL (      49 calls)
     h_psi:calbec :      0.53s CPU      0.59s WALL (      49 calls)
     vloc_psi     :      8.10s CPU      9.10s WALL (      49 calls)
     add_vuspsi   :      0.35s CPU      0.38s WALL (      49 calls)

     General routines
     calbec       :      0.53s CPU      0.59s WALL (      49 calls)
     fft          :      0.22s CPU      0.54s WALL (     100 calls)
     fftw         :      9.40s CPU     10.49s WALL (    7897 calls)
 
     Parallel routines
     fft_scatter  :      8.02s CPU      7.84s WALL (    7997 calls)
 
     PWSCF        :    18.74s CPU        24.61s WALL

 
   This run was terminated on:  14: 1: 5  21Sep2017            

=------------------------------------------------------------------------------=
   JOB DONE.
=------------------------------------------------------------------------------=
