
     Program PWSCF v.6.1 (svn rev. 13369) starts on 18Apr2018 at 21: 7: 4 

     This program is part of the open-source Quantum ESPRESSO suite
     for quantum simulation of materials; please cite
         "P. Giannozzi et al., J. Phys.:Condens. Matter 21 395502 (2009);
          URL http://www.quantum-espresso.org", 
     in publications or presentations arising from this work. More details at
     http://www.quantum-espresso.org/quote

     Parallel version (MPI & OpenMP), running on      80 processor cores
     Number of MPI processes:                80
     Threads/MPI process:                     1
     R & G space division:  proc/nbgrp/npool/nimage =      80
     Waiting for input...
     Reading input from standard input

     Current dimensions of program PWSCF are:
     Max number of different atomic species (ntypx) = 10
     Max number of k-points (npk) =  40000
     Max angular momentum in pseudopotentials (lmaxx) =  3

     gamma-point specific algorithms are used

     Subspace diagonalization in iterative solution of the eigenvalue problem:
     one sub-group per band group will be used
     scalapack distributed-memory algorithm (size of sub-group:  6*  6 procs)

 
     Parallelization info
     --------------------
     sticks:   dense  smooth     PW     G-vecs:    dense   smooth      PW
     Min         303     303     75                35728    35728    4455
     Max         306     306     80                35736    35736    4472
     Sum       24345   24345   6093              2858633  2858633  357213
 


     bravais-lattice index     =            1
     lattice parameter (alat)  =      30.0000  a.u.
     unit-cell volume          =   27000.0000 (a.u.)^3
     number of atoms/cell      =            3
     number of atomic types    =            3
     number of electrons       =        10.00
     number of Kohn-Sham states=          100
     kinetic-energy cutoff     =      85.0000  Ry
     charge density cutoff     =     340.0000  Ry
     convergence threshold     =      1.0E-06
     mixing beta               =       0.4000
     number of iterations used =            8  plain     mixing
     Exchange-correlation      = PBE ( 1  4  3  4 0 0)

     celldm(1)=  30.000000  celldm(2)=   0.000000  celldm(3)=   0.000000
     celldm(4)=   0.000000  celldm(5)=   0.000000  celldm(6)=   0.000000

     crystal axes: (cart. coord. in units of alat)
               a(1) = (   1.000000   0.000000   0.000000 )  
               a(2) = (   0.000000   1.000000   0.000000 )  
               a(3) = (   0.000000   0.000000   1.000000 )  

     reciprocal axes: (cart. coord. in units 2 pi/alat)
               b(1) = (  1.000000  0.000000  0.000000 )  
               b(2) = (  0.000000  1.000000  0.000000 )  
               b(3) = (  0.000000  0.000000  1.000000 )  


     PseudoPot. # 1 for C  read from file:
     ~/PseudoPotential/upf/C_ONCV_PBE-1.0.upf
     MD5 check sum: Not computed, couldn't open file
     Pseudo is Norm-conserving, Zval =  4.0
     Generated using ONCVPSP code by D. R. Hamann
     Using radial grid of  602 points,  4 beta functions with: 
                l(1) =   0
                l(2) =   0
                l(3) =   1
                l(4) =   1

     PseudoPot. # 2 for N  read from file:
     ~/PseudoPotential/upf/N_ONCV_PBE-1.0.upf
     MD5 check sum: Not computed, couldn't open file
     Pseudo is Norm-conserving, Zval =  5.0
     Generated using ONCVPSP code by D. R. Hamann
     Using radial grid of  602 points,  4 beta functions with: 
                l(1) =   0
                l(2) =   0
                l(3) =   1
                l(4) =   1

     PseudoPot. # 3 for H  read from file:
     ~/PseudoPotential/upf/H_ONCV_PBE-1.0.upf
     MD5 check sum: Not computed, couldn't open file
     Pseudo is Norm-conserving, Zval =  1.0
     Generated using ONCVPSP code by D. R. Hamann
     Using radial grid of  602 points,  2 beta functions with: 
                l(1) =   0
                l(2) =   0

     atomic species   valence    mass     pseudopotential
        C              4.00     1.00000     C ( 1.00)
        N              5.00     1.00000     N ( 1.00)
        H              1.00     1.00000     H ( 1.00)

     No symmetry found



   Cartesian axes

     site n.     atom                  positions (alat units)
         1           C   tau(   1) = (   0.0000000   0.0000000  -0.0322354  )
         2           N   tau(   2) = (   0.0000000   0.0000000   0.0418550  )
         3           H   tau(   3) = (   0.0000000   0.0000000  -0.0995726  )

     number of k points=     1
                       cart. coord. in units 2pi/alat
        k(    1) = (   0.0000000   0.0000000   0.0000000), wk =   2.0000000

     Dense  grid:  1429317 G-vectors     FFT dimensions: ( 180, 180, 180)

     Estimated max dynamical RAM per process >      49.07MB

     Estimated total allocated dynamical RAM >    3925.74MB

     Initial potential from superposition of free atoms
     Check: negative starting charge=   -0.000272

     starting charge    9.98831, renormalised to   10.00000

     negative rho (up, down):  2.719E-04 0.000E+00
     Starting wfc are random

     total cpu time spent up to now is        3.0 secs

     per-process dynamical memory:    69.4 Mb

     Self-consistent Calculation

     iteration #  1     ecut=    85.00 Ry     beta=0.40
     Davidson diagonalization with overlap
     ethr =  1.00E-02,  avg # of iterations = 13.0

     negative rho (up, down):  1.017E-04 0.000E+00

     total cpu time spent up to now is        9.8 secs

     total energy              =     -32.33818042 Ry
     Harris-Foulkes estimate   =     -32.53301364 Ry
     estimated scf accuracy    <       0.40559913 Ry

     iteration #  2     ecut=    85.00 Ry     beta=0.40
     Davidson diagonalization with overlap
     ethr =  4.06E-03,  avg # of iterations =  1.0

     negative rho (up, down):  4.801E-05 0.000E+00

     total cpu time spent up to now is       11.4 secs

     total energy              =     -32.36533092 Ry
     Harris-Foulkes estimate   =     -32.40891017 Ry
     estimated scf accuracy    <       0.10752195 Ry

     iteration #  3     ecut=    85.00 Ry     beta=0.40
     Davidson diagonalization with overlap
     ethr =  1.08E-03,  avg # of iterations =  1.0

     negative rho (up, down):  1.599E-05 0.000E+00

     total cpu time spent up to now is       13.0 secs

     total energy              =     -32.37781794 Ry
     Harris-Foulkes estimate   =     -32.38884194 Ry
     estimated scf accuracy    <       0.03078996 Ry

     iteration #  4     ecut=    85.00 Ry     beta=0.40
     Davidson diagonalization with overlap
     ethr =  3.08E-04,  avg # of iterations =  1.0

     negative rho (up, down):  1.552E-06 0.000E+00

     total cpu time spent up to now is       14.5 secs

     total energy              =     -32.38067829 Ry
     Harris-Foulkes estimate   =     -32.38150695 Ry
     estimated scf accuracy    <       0.00224618 Ry

     iteration #  5     ecut=    85.00 Ry     beta=0.40
     Davidson diagonalization with overlap
     ethr =  2.25E-05,  avg # of iterations =  7.0

     negative rho (up, down):  4.612E-07 0.000E+00

     total cpu time spent up to now is       16.5 secs

     total energy              =     -32.38084625 Ry
     Harris-Foulkes estimate   =     -32.38085843 Ry
     estimated scf accuracy    <       0.00004407 Ry

     iteration #  6     ecut=    85.00 Ry     beta=0.40
     Davidson diagonalization with overlap
     ethr =  4.41E-07,  avg # of iterations =  5.0

     negative rho (up, down):  8.137E-08 0.000E+00

     total cpu time spent up to now is       18.6 secs

     total energy              =     -32.38085893 Ry
     Harris-Foulkes estimate   =     -32.38086087 Ry
     estimated scf accuracy    <       0.00000786 Ry

     iteration #  7     ecut=    85.00 Ry     beta=0.40
     Davidson diagonalization with overlap
     ethr =  7.86E-08,  avg # of iterations =  2.0

     total cpu time spent up to now is       20.1 secs

     End of self-consistent calculation

          k = 0.0000 0.0000 0.0000 (178607 PWs)   bands (ev):

   -22.8053 -15.1595  -9.1309  -8.8754  -8.8754  -1.2476  -1.2476  -0.3412
     0.0668   0.3649   0.5152   0.5152   0.6172   0.6269   0.7532   1.0382
     1.0383   1.0438   1.1553   1.1759   1.1759   1.2077   1.2138   1.2327
     1.2355   1.2357   1.4130   1.7264   1.7265   1.7442   1.7636   1.7712
     1.7713   1.8016   1.9057   2.2063   2.2769   2.2770   2.3019   2.3931
     2.4768   2.7374   2.7675   2.7778   2.7778   2.8206   2.8501   2.8503
     2.9238   2.9390   2.9390   2.9412   2.9776   2.9776   3.0046   3.0046
     3.0063   3.0100   3.0158   3.0296   3.0314   3.0339   3.0339   3.0421
     3.1951   3.3721   3.4397   3.4397   3.4652   3.4715   3.4715   3.5183
     3.5306   3.5594   3.5742   3.5763   3.5763   3.5834   3.5834   3.5983
     3.5984   3.6023   3.6044   3.6076   3.6078   3.6186   3.6194   3.6509
     3.9059   4.5337   4.6124   4.6137   4.6138   4.6867   4.7170   4.7171
     4.7263   4.7335   4.7336   4.8186

     highest occupied, lowest unoccupied level (ev):    -8.8754   -1.2476

!    total energy              =     -32.38085949 Ry
     Harris-Foulkes estimate   =     -32.38085967 Ry
     estimated scf accuracy    <       0.00000044 Ry

     The total energy is the sum of the following terms:

     one-electron contribution =     -78.71374078 Ry
     hartree contribution      =      40.39134612 Ry
     xc contribution           =      -8.94632155 Ry
     ewald contribution        =      14.88785672 Ry

     charge density inside the Wigner-Seitz cell:   10.00000000

     reference position (x0):         0.00000000    0.00000000   -0.05771772 bohr

     Dipole moments (with respect to x0):
     Elect   0.0000  -0.0000  -1.1709 au (Ha),   0.0000  -0.0000  -2.9762 Debye
     Ionic   0.0000   0.0000  -0.0000 au (Ha),   0.0000   0.0000  -0.0000 Debye
     Total   0.0000  -0.0000  -1.1709 au (Ha),   0.0000  -0.0000  -2.9762 Debye

     Electrons quadrupole moment        -45.33444175 a.u. (Ha)
          Ions quadrupole moment         20.51402242 a.u. (Ha)
         Total quadrupole moment        -24.82041933 a.u. (Ha)

     *********    MAKOV-PAYNE CORRECTION    *********

     Makov-Payne correction with Madelung constant =   2.8373

     Makov-Payne correction     0.00000000 Ry =  0.000 eV (1st order, 1/a0)
                                0.00021271 Ry =  0.003 eV (2nd order, 1/a0^3)
                                0.00021271 Ry =  0.003 eV (total)

!    Total+Makov-Payne energy  =     -32.38064677 Ry
     Corrected vacuum level    =       0.05233896 eV

     convergence has been achieved in   7 iterations

     Writing output data file ./hcn.save
 
     init_run     :      1.54s CPU      1.81s WALL (       1 calls)
     electrons    :     17.10s CPU     17.69s WALL (       1 calls)

     Called by init_run:
     wfcinit      :      0.56s CPU      0.63s WALL (       1 calls)
     potinit      :      0.22s CPU      0.29s WALL (       1 calls)

     Called by electrons:
     c_bands      :     14.17s CPU     14.24s WALL (       7 calls)
     sum_band     :      1.84s CPU      1.88s WALL (       7 calls)
     v_of_rho     :      0.81s CPU      0.86s WALL (       8 calls)
     mix_rho      :      0.10s CPU      0.12s WALL (       7 calls)

     Called by c_bands:
     init_us_2    :      0.01s CPU      0.01s WALL (      15 calls)
     regterg      :     14.15s CPU     14.22s WALL (       7 calls)

     Called by sum_band:

     Called by *egterg:
     h_psi        :     11.15s CPU     11.21s WALL (      38 calls)
     g_psi        :      0.02s CPU      0.03s WALL (      30 calls)
     rdiaghg      :      1.36s CPU      1.39s WALL (      37 calls)

     Called by h_psi:
     h_psi:pot    :     11.06s CPU     11.12s WALL (      38 calls)
     h_psi:calbec :      0.08s CPU      0.09s WALL (      38 calls)
     vloc_psi     :     10.95s CPU     10.99s WALL (      38 calls)
     add_vuspsi   :      0.03s CPU      0.04s WALL (      38 calls)

     General routines
     calbec       :      0.08s CPU      0.09s WALL (      38 calls)
     fft          :      0.87s CPU      1.00s WALL (      87 calls)
     fftw         :     11.92s CPU     11.84s WALL (    2730 calls)
 
     Parallel routines
     fft_scatter  :      9.65s CPU      9.47s WALL (    2817 calls)
 
     PWSCF        :    20.94s CPU        24.62s WALL

 
   This run was terminated on:  21: 7:28  18Apr2018            

=------------------------------------------------------------------------------=
   JOB DONE.
=------------------------------------------------------------------------------=
