
     Program PWSCF v.6.1 (svn rev. 13369) starts on 22Jan2019 at 15:53:21 

     This program is part of the open-source Quantum ESPRESSO suite
     for quantum simulation of materials; please cite
         "P. Giannozzi et al., J. Phys.:Condens. Matter 21 395502 (2009);
          URL http://www.quantum-espresso.org", 
     in publications or presentations arising from this work. More details at
     http://www.quantum-espresso.org/quote

     Parallel version (MPI & OpenMP), running on      40 processor cores
     Number of MPI processes:                40
     Threads/MPI process:                     1
     R & G space division:  proc/nbgrp/npool/nimage =      40
     Waiting for input...
     Reading input from standard input

     Current dimensions of program PWSCF are:
     Max number of different atomic species (ntypx) = 10
     Max number of k-points (npk) =  40000
     Max angular momentum in pseudopotentials (lmaxx) =  3

     gamma-point specific algorithms are used

     Subspace diagonalization in iterative solution of the eigenvalue problem:
     one sub-group per band group will be used
     scalapack distributed-memory algorithm (size of sub-group:  4*  4 procs)

 
     Parallelization info
     --------------------
     sticks:   dense  smooth     PW     G-vecs:    dense   smooth      PW
     Min         608     608    151                71460    71460    8926
     Max         610     610    158                71470    71470    8932
     Sum       24345   24345   6093              2858633  2858633  357213
 


     bravais-lattice index     =            1
     lattice parameter (alat)  =      30.0000  a.u.
     unit-cell volume          =   27000.0000 (a.u.)^3
     number of atoms/cell      =            2
     number of atomic types    =            2
     number of electrons       =         8.00
     number of Kohn-Sham states=          100
     kinetic-energy cutoff     =      85.0000  Ry
     charge density cutoff     =     340.0000  Ry
     convergence threshold     =      1.0E-06
     mixing beta               =       0.4000
     number of iterations used =            8  plain     mixing
     Exchange-correlation      = PBE ( 1  4  3  4 0 0)

     celldm(1)=  30.000000  celldm(2)=   0.000000  celldm(3)=   0.000000
     celldm(4)=   0.000000  celldm(5)=   0.000000  celldm(6)=   0.000000

     crystal axes: (cart. coord. in units of alat)
               a(1) = (   1.000000   0.000000   0.000000 )  
               a(2) = (   0.000000   1.000000   0.000000 )  
               a(3) = (   0.000000   0.000000   1.000000 )  

     reciprocal axes: (cart. coord. in units 2 pi/alat)
               b(1) = (  1.000000  0.000000  0.000000 )  
               b(2) = (  0.000000  1.000000  0.000000 )  
               b(3) = (  0.000000  0.000000  1.000000 )  


     PseudoPot. # 1 for F  read from file:
     ~/PseudoPotential/upf/F_ONCV_PBE-1.0.upf
     MD5 check sum: Not computed, couldn't open file
     Pseudo is Norm-conserving, Zval =  7.0
     Generated using ONCVPSP code by D. R. Hamann
     Using radial grid of  602 points,  4 beta functions with: 
                l(1) =   0
                l(2) =   0
                l(3) =   1
                l(4) =   1

     PseudoPot. # 2 for H  read from file:
     ~/PseudoPotential/upf/H_ONCV_PBE-1.0.upf
     MD5 check sum: Not computed, couldn't open file
     Pseudo is Norm-conserving, Zval =  1.0
     Generated using ONCVPSP code by D. R. Hamann
     Using radial grid of  602 points,  2 beta functions with: 
                l(1) =   0
                l(2) =   0

     atomic species   valence    mass     pseudopotential
        F              7.00     1.00000     F ( 1.00)
        H              1.00     1.00000     H ( 1.00)

     No symmetry found



   Cartesian axes

     site n.     atom                  positions (alat units)
         1           F   tau(   1) = (   0.0000000   0.0000000   0.0058827  )
         2           H   tau(   2) = (   0.0000000   0.0000000  -0.0529440  )

     number of k points=     1
                       cart. coord. in units 2pi/alat
        k(    1) = (   0.0000000   0.0000000   0.0000000), wk =   2.0000000

     Dense  grid:  1429317 G-vectors     FFT dimensions: ( 180, 180, 180)

     Estimated max dynamical RAM per process >      60.90MB

     Estimated total allocated dynamical RAM >    2435.83MB

     Initial potential from superposition of free atoms
     Check: negative starting charge=   -0.000155

     starting charge    7.99751, renormalised to    8.00000

     negative rho (up, down):  1.546E-04 0.000E+00
     Starting wfc are random

     total cpu time spent up to now is        5.1 secs

     per-process dynamical memory:    68.1 Mb

     Self-consistent Calculation

     iteration #  1     ecut=    85.00 Ry     beta=0.40
     Davidson diagonalization with overlap
     ethr =  1.00E-02,  avg # of iterations = 15.0

     negative rho (up, down):  7.827E-05 0.000E+00

     total cpu time spent up to now is       15.3 secs

     total energy              =     -48.94706444 Ry
     Harris-Foulkes estimate   =     -49.03029125 Ry
     estimated scf accuracy    <       0.16793086 Ry

     iteration #  2     ecut=    85.00 Ry     beta=0.40
     Davidson diagonalization with overlap
     ethr =  2.10E-03,  avg # of iterations =  2.0

     negative rho (up, down):  3.642E-05 0.000E+00

     total cpu time spent up to now is       17.5 secs

     total energy              =     -48.97357684 Ry
     Harris-Foulkes estimate   =     -48.97574531 Ry
     estimated scf accuracy    <       0.01244330 Ry

     iteration #  3     ecut=    85.00 Ry     beta=0.40
     Davidson diagonalization with overlap
     ethr =  1.56E-04,  avg # of iterations =  4.0

     negative rho (up, down):  5.402E-07 0.000E+00

     total cpu time spent up to now is       19.8 secs

     total energy              =     -48.97286528 Ry
     Harris-Foulkes estimate   =     -48.97379398 Ry
     estimated scf accuracy    <       0.00419652 Ry

     iteration #  4     ecut=    85.00 Ry     beta=0.40
     Davidson diagonalization with overlap
     ethr =  5.25E-05,  avg # of iterations =  5.0

     negative rho (up, down):  7.176E-07 0.000E+00

     total cpu time spent up to now is       22.3 secs

     total energy              =     -48.97297986 Ry
     Harris-Foulkes estimate   =     -48.97298751 Ry
     estimated scf accuracy    <       0.00002021 Ry

     iteration #  5     ecut=    85.00 Ry     beta=0.40
     Davidson diagonalization with overlap
     ethr =  2.53E-07,  avg # of iterations = 17.0

     total cpu time spent up to now is       26.6 secs

     total energy              =     -48.97298386 Ry
     Harris-Foulkes estimate   =     -48.97298341 Ry
     estimated scf accuracy    <       0.00000360 Ry

     iteration #  6     ecut=    85.00 Ry     beta=0.40
     Davidson diagonalization with overlap
     ethr =  4.50E-08,  avg # of iterations =  1.0

     total cpu time spent up to now is       28.7 secs

     End of self-consistent calculation

          k = 0.0000 0.0000 0.0000 (178607 PWs)   bands (ev):

   -29.9247 -13.4266  -9.5695  -9.5695  -1.0121   0.0876   0.5341   0.5342
     0.5467   0.6101   0.6151   0.7923   1.0347   1.0348   1.0660   1.1814
     1.1829   1.1829   1.2025   1.2056   1.2156   1.2170   1.2170   1.5160
     1.6990   1.6990   1.7300   1.7680   1.7695   1.7696   1.8001   2.0381
     2.2794   2.2795   2.3209   2.3217   2.3385   2.5293   2.7096   2.7096
     2.8237   2.8549   2.8700   2.8808   2.8904   2.8904   2.9598   2.9604
     2.9605   2.9794   2.9794   2.9794   2.9977   2.9983   2.9983   2.9989
     3.0054   3.0091   3.0139   3.0139   3.0177   3.3000   3.4048   3.4048
     3.4519   3.4653   3.4653   3.4884   3.5279   3.5386   3.5427   3.5763
     3.5763   3.5787   3.5788   3.5802   3.5808   3.5916   3.5942   3.5943
     3.5953   3.5975   3.5975   3.6030   3.6046   4.1867   4.5911   4.5911
     4.6699   4.7067   4.7067   4.7110   4.7132   4.7358   4.7358   4.7371
     4.7540   4.9209   5.1013   5.1016

     highest occupied, lowest unoccupied level (ev):    -9.5695   -1.0121

!    total energy              =     -48.97298390 Ry
     Harris-Foulkes estimate   =     -48.97298407 Ry
     estimated scf accuracy    <       0.00000027 Ry

     The total energy is the sum of the following terms:

     one-electron contribution =     -85.56651732 Ry
     hartree contribution      =      44.60306681 Ry
     xc contribution           =      -9.89294999 Ry
     ewald contribution        =       1.88341661 Ry

     charge density inside the Wigner-Seitz cell:    8.00000000

     reference position (x0):         0.00000000    0.00000000   -0.04412014 bohr

     Dipole moments (with respect to x0):
     Elect  -0.0000  -0.0000  -0.7041 au (Ha),  -0.0000  -0.0000  -1.7898 Debye
     Ionic   0.0000   0.0000   0.0000 au (Ha),   0.0000   0.0000   0.0000 Debye
     Total  -0.0000  -0.0000  -0.7041 au (Ha),  -0.0000  -0.0000  -1.7898 Debye

     Electrons quadrupole moment        -14.53881287 a.u. (Ha)
          Ions quadrupole moment          2.72519869 a.u. (Ha)
         Total quadrupole moment        -11.81361418 a.u. (Ha)

     *********    MAKOV-PAYNE CORRECTION    *********

     Makov-Payne correction with Madelung constant =   2.8373

     Makov-Payne correction     0.00000000 Ry =  0.000 eV (1st order, 1/a0)
                                0.00007692 Ry =  0.001 eV (2nd order, 1/a0^3)
                                0.00007692 Ry =  0.001 eV (total)

!    Total+Makov-Payne energy  =     -48.97290698 Ry
     Corrected vacuum level    =       0.02488496 eV

     convergence has been achieved in   6 iterations

     Writing output data file ./hf.save
 
     init_run     :      1.61s CPU      1.85s WALL (       1 calls)
     electrons    :     22.60s CPU     23.96s WALL (       1 calls)

     Called by init_run:
     wfcinit      :      0.68s CPU      0.68s WALL (       1 calls)
     potinit      :      0.30s CPU      0.47s WALL (       1 calls)

     Called by electrons:
     c_bands      :     18.93s CPU     19.23s WALL (       6 calls)
     sum_band     :      2.21s CPU      2.35s WALL (       6 calls)
     v_of_rho     :      1.21s CPU      2.16s WALL (       7 calls)
     mix_rho      :      0.14s CPU      0.19s WALL (       6 calls)

     Called by c_bands:
     init_us_2    :      0.01s CPU      0.02s WALL (      13 calls)
     regterg      :     18.90s CPU     19.20s WALL (       6 calls)

     Called by sum_band:

     Called by *egterg:
     h_psi        :     14.36s CPU     14.42s WALL (      51 calls)
     g_psi        :      0.06s CPU      0.06s WALL (      44 calls)
     rdiaghg      :      1.47s CPU      1.50s WALL (      50 calls)

     Called by h_psi:
     h_psi:pot    :     14.17s CPU     14.23s WALL (      51 calls)
     h_psi:calbec :      0.12s CPU      0.10s WALL (      51 calls)
     vloc_psi     :     14.00s CPU     14.05s WALL (      51 calls)
     add_vuspsi   :      0.06s CPU      0.07s WALL (      51 calls)

     General routines
     calbec       :      0.12s CPU      0.10s WALL (      51 calls)
     fft          :      1.12s CPU      2.04s WALL (      76 calls)
     fftw         :     13.31s CPU     13.24s WALL (    2736 calls)
 
     Parallel routines
     fft_scatter  :      8.37s CPU      8.51s WALL (    2812 calls)
 
     PWSCF        :    28.79s CPU        33.11s WALL

 
   This run was terminated on:  15:53:54  22Jan2019            

=------------------------------------------------------------------------------=
   JOB DONE.
=------------------------------------------------------------------------------=
