
     Program PWSCF v.6.1 (svn rev. 13369) starts on 18Apr2018 at 21: 4:26 

     This program is part of the open-source Quantum ESPRESSO suite
     for quantum simulation of materials; please cite
         "P. Giannozzi et al., J. Phys.:Condens. Matter 21 395502 (2009);
          URL http://www.quantum-espresso.org", 
     in publications or presentations arising from this work. More details at
     http://www.quantum-espresso.org/quote

     Parallel version (MPI & OpenMP), running on      80 processor cores
     Number of MPI processes:                80
     Threads/MPI process:                     1
     R & G space division:  proc/nbgrp/npool/nimage =      80
     Waiting for input...
     Reading input from standard input

     Current dimensions of program PWSCF are:
     Max number of different atomic species (ntypx) = 10
     Max number of k-points (npk) =  40000
     Max angular momentum in pseudopotentials (lmaxx) =  3

     gamma-point specific algorithms are used

     Subspace diagonalization in iterative solution of the eigenvalue problem:
     one sub-group per band group will be used
     scalapack distributed-memory algorithm (size of sub-group:  6*  6 procs)

 
     Parallelization info
     --------------------
     sticks:   dense  smooth     PW     G-vecs:    dense   smooth      PW
     Min         303     303     75                35728    35728    4455
     Max         306     306     80                35736    35736    4472
     Sum       24345   24345   6093              2858633  2858633  357213
 


     bravais-lattice index     =            1
     lattice parameter (alat)  =      30.0000  a.u.
     unit-cell volume          =   27000.0000 (a.u.)^3
     number of atoms/cell      =            2
     number of atomic types    =            1
     number of electrons       =        14.00
     number of Kohn-Sham states=          100
     kinetic-energy cutoff     =      85.0000  Ry
     charge density cutoff     =     340.0000  Ry
     convergence threshold     =      1.0E-06
     mixing beta               =       0.4000
     number of iterations used =            8  plain     mixing
     Exchange-correlation      = PBE ( 1  4  3  4 0 0)

     celldm(1)=  30.000000  celldm(2)=   0.000000  celldm(3)=   0.000000
     celldm(4)=   0.000000  celldm(5)=   0.000000  celldm(6)=   0.000000

     crystal axes: (cart. coord. in units of alat)
               a(1) = (   1.000000   0.000000   0.000000 )  
               a(2) = (   0.000000   1.000000   0.000000 )  
               a(3) = (   0.000000   0.000000   1.000000 )  

     reciprocal axes: (cart. coord. in units 2 pi/alat)
               b(1) = (  1.000000  0.000000  0.000000 )  
               b(2) = (  0.000000  1.000000  0.000000 )  
               b(3) = (  0.000000  0.000000  1.000000 )  


     PseudoPot. # 1 for F  read from file:
     ~/PseudoPotential/upf/F_ONCV_PBE-1.0.upf
     MD5 check sum: Not computed, couldn't open file
     Pseudo is Norm-conserving, Zval =  7.0
     Generated using ONCVPSP code by D. R. Hamann
     Using radial grid of  602 points,  4 beta functions with: 
                l(1) =   0
                l(2) =   0
                l(3) =   1
                l(4) =   1

     atomic species   valence    mass     pseudopotential
        F              7.00     1.00000     F ( 1.00)

     No symmetry found



   Cartesian axes

     site n.     atom                  positions (alat units)
         1           F   tau(   1) = (   0.0000000   0.0000000   0.0447427  )
         2           F   tau(   2) = (   0.0000000   0.0000000  -0.0447427  )

     number of k points=     1
                       cart. coord. in units 2pi/alat
        k(    1) = (   0.0000000   0.0000000   0.0000000), wk =   2.0000000

     Dense  grid:  1429317 G-vectors     FFT dimensions: ( 180, 180, 180)

     Estimated max dynamical RAM per process >      49.07MB

     Estimated total allocated dynamical RAM >    3925.74MB

     Initial potential from superposition of free atoms

     starting charge   13.99930, renormalised to   14.00000

     negative rho (up, down):  8.255E-05 0.000E+00
     Starting wfc are random

     total cpu time spent up to now is        2.7 secs

     per-process dynamical memory:    64.4 Mb

     Self-consistent Calculation

     iteration #  1     ecut=    85.00 Ry     beta=0.40
     Davidson diagonalization with overlap
     ethr =  1.00E-02,  avg # of iterations = 15.0

     negative rho (up, down):  3.745E-05 0.000E+00

     total cpu time spent up to now is        9.5 secs

     total energy              =     -95.21465379 Ry
     Harris-Foulkes estimate   =     -95.26597310 Ry
     estimated scf accuracy    <       0.14304391 Ry

     iteration #  2     ecut=    85.00 Ry     beta=0.40
     Davidson diagonalization with overlap
     ethr =  1.02E-03,  avg # of iterations =  1.0

     negative rho (up, down):  6.735E-06 0.000E+00

     total cpu time spent up to now is       11.0 secs

     total energy              =     -95.20039427 Ry
     Harris-Foulkes estimate   =     -95.21849696 Ry
     estimated scf accuracy    <       0.03931701 Ry

     iteration #  3     ecut=    85.00 Ry     beta=0.40
     Davidson diagonalization with overlap
     ethr =  2.81E-04,  avg # of iterations =  1.0

     negative rho (up, down):  1.051E-06 0.000E+00

     total cpu time spent up to now is       12.5 secs

     total energy              =     -95.20214906 Ry
     Harris-Foulkes estimate   =     -95.20259419 Ry
     estimated scf accuracy    <       0.00113783 Ry

     iteration #  4     ecut=    85.00 Ry     beta=0.40
     Davidson diagonalization with overlap
     ethr =  8.13E-06,  avg # of iterations =  9.0

     negative rho (up, down):  3.122E-07 0.000E+00

     total cpu time spent up to now is       14.9 secs

     total energy              =     -95.20223993 Ry
     Harris-Foulkes estimate   =     -95.20223931 Ry
     estimated scf accuracy    <       0.00001669 Ry

     iteration #  5     ecut=    85.00 Ry     beta=0.40
     Davidson diagonalization with overlap
     ethr =  1.19E-07,  avg # of iterations =  3.0

     negative rho (up, down):  9.066E-08 0.000E+00

     total cpu time spent up to now is       16.5 secs

     total energy              =     -95.20224251 Ry
     Harris-Foulkes estimate   =     -95.20224211 Ry
     estimated scf accuracy    <       0.00000250 Ry

     iteration #  6     ecut=    85.00 Ry     beta=0.40
     Davidson diagonalization with overlap
     ethr =  1.79E-08,  avg # of iterations =  1.0

     total cpu time spent up to now is       17.9 secs

     End of self-consistent calculation

          k = 0.0000 0.0000 0.0000 (178607 PWs)   bands (ev):

   -33.8940 -27.7342 -15.4580 -12.7318 -12.7318  -9.4108  -9.4108  -6.0418
    -0.1759   0.2957   0.5347   0.5578   0.5579   0.6245   0.6308   1.0115
     1.0379   1.0677   1.0678   1.1897   1.1898   1.2023   1.2128   1.2238
     1.2308   1.2309   1.2313   1.7203   1.7299   1.7299   1.7484   1.7708
     1.7708   1.7896   1.8125   2.3006   2.3118   2.3118   2.3182   2.3329
     2.3799   2.7741   2.7741   2.7867   2.8108   2.8668   2.8683   2.8683
     2.8835   2.9334   2.9693   2.9741   2.9741   2.9886   3.0005   3.0006
     3.0143   3.0143   3.0190   3.0194   3.0202   3.0259   3.0259   3.0264
     3.0282   3.4444   3.4445   3.4637   3.4637   3.4645   3.4717   3.5234
     3.5271   3.5525   3.5830   3.5864   3.5874   3.5874   3.5877   3.6007
     3.6007   3.6056   3.6056   3.6105   3.6106   3.6114   3.6153   3.6174
     3.6190   4.6627   4.6778   4.6778   4.6828   4.7100   4.7101   4.7245
     4.7385   4.7385   4.7395   4.7406

     highest occupied, lowest unoccupied level (ev):    -9.4108   -6.0418

!    total energy              =     -95.20224252 Ry
     Harris-Foulkes estimate   =     -95.20224277 Ry
     estimated scf accuracy    <       0.00000064 Ry

     The total energy is the sum of the following terms:

     one-electron contribution =    -195.94016121 Ry
     hartree contribution      =     100.74719900 Ry
     xc contribution           =     -18.03275812 Ry
     ewald contribution        =      18.02347782 Ry

     charge density inside the Wigner-Seitz cell:   14.00000000

     reference position (x0):         0.00000000    0.00000000    0.00000000 bohr

     Dipole moments (with respect to x0):
     Elect   0.0000   0.0000   0.0010 au (Ha),   0.0000   0.0000   0.0025 Debye
     Ionic   0.0000   0.0000   0.0000 au (Ha),   0.0000   0.0000   0.0000 Debye
     Total   0.0000   0.0000   0.0010 au (Ha),   0.0000   0.0000   0.0025 Debye

     Electrons quadrupole moment        -46.59359747 a.u. (Ha)
          Ions quadrupole moment         25.22401955 a.u. (Ha)
         Total quadrupole moment        -21.36957793 a.u. (Ha)

     *********    MAKOV-PAYNE CORRECTION    *********

     Makov-Payne correction with Madelung constant =   2.8373

     Makov-Payne correction     0.00000000 Ry =  0.000 eV (1st order, 1/a0)
                                0.00000000 Ry =  0.000 eV (2nd order, 1/a0^3)
                                0.00000000 Ry =  0.000 eV (total)

!    Total+Makov-Payne energy  =     -95.20224252 Ry
     Corrected vacuum level    =       0.04505131 eV

     convergence has been achieved in   6 iterations

     Writing output data file ./f2.save
 
     init_run     :      1.51s CPU      1.76s WALL (       1 calls)
     electrons    :     15.43s CPU     15.61s WALL (       1 calls)

     Called by init_run:
     wfcinit      :      0.58s CPU      0.63s WALL (       1 calls)
     potinit      :      0.15s CPU      0.22s WALL (       1 calls)

     Called by electrons:
     c_bands      :     12.92s CPU     12.98s WALL (       6 calls)
     sum_band     :      1.56s CPU      1.57s WALL (       6 calls)
     v_of_rho     :      0.69s CPU      0.74s WALL (       7 calls)
     mix_rho      :      0.09s CPU      0.10s WALL (       6 calls)

     Called by c_bands:
     init_us_2    :      0.00s CPU      0.01s WALL (      13 calls)
     regterg      :     12.90s CPU     12.96s WALL (       6 calls)

     Called by sum_band:

     Called by *egterg:
     h_psi        :     10.00s CPU     10.03s WALL (      37 calls)
     g_psi        :      0.02s CPU      0.02s WALL (      30 calls)
     rdiaghg      :      1.40s CPU      1.44s WALL (      36 calls)

     Called by h_psi:
     h_psi:pot    :      9.92s CPU      9.96s WALL (      37 calls)
     h_psi:calbec :      0.06s CPU      0.07s WALL (      37 calls)
     vloc_psi     :      9.83s CPU      9.85s WALL (      37 calls)
     add_vuspsi   :      0.02s CPU      0.03s WALL (      37 calls)

     General routines
     calbec       :      0.06s CPU      0.06s WALL (      37 calls)
     fft          :      0.72s CPU      0.86s WALL (      76 calls)
     fftw         :     10.58s CPU     10.52s WALL (    2444 calls)
 
     Parallel routines
     fft_scatter  :      8.56s CPU      8.35s WALL (    2520 calls)
 
     PWSCF        :    19.16s CPU        23.25s WALL

 
   This run was terminated on:  21: 4:50  18Apr2018            

=------------------------------------------------------------------------------=
   JOB DONE.
=------------------------------------------------------------------------------=
